Merged slit + ring-check filtered guest
68928
    1OM     OM1    1   3.802   2.983   0.273  0.0000  0.0000  0.0000
    2OM     OM1    2   3.885   2.800   0.429  0.0000  0.0000  0.0000
    3OM     OM1    3   3.694   2.956   0.513  0.0000  0.0000  0.0000
    4OM     OM1    4   3.932   3.054   0.492  0.0000  0.0000  0.0000
    5OM     OM1    5   3.604   6.494   1.241  0.0000  0.0000  0.0000
    6OM     OM1    6   3.832   6.426   1.330  0.0000  0.0000  0.0000
    7OM     OM1    7   5.982   5.574   8.850  0.0000  0.0000  0.0000
    8OM     OM1    8   6.188   5.415   8.854  0.0000  0.0000  0.0000
    9OM     OM1    9   6.213   5.678   8.872  0.0000  0.0000  0.0000
   10OM     OM1   10   6.104   5.556   9.071  0.0000  0.0000  0.0000
   11OM     OM1   11   5.061   3.626   1.221  0.0000  0.0000  0.0000
   12OM     OM1   12   4.864   3.595   1.054  0.0000  0.0000  0.0000
   13OM     OM1   13   4.915   3.832   1.153  0.0000  0.0000  0.0000
   14OM     OM1   14   8.973   4.194   9.431  0.0000  0.0000  0.0000
   15OM     OM1   15   8.921   3.940   9.354  0.0000  0.0000  0.0000
   16OM     OM1   16   8.731   4.104   9.402  0.0000  0.0000  0.0000
   17OM     OM1   17   8.879   4.148   9.197  0.0000  0.0000  0.0000
   18OM     OM1   18   5.240   9.191   1.209  0.0000  0.0000  0.0000
   19OM     OM1   19   0.775   5.026   1.423  0.0000  0.0000  0.0000
   20OM     OM1   20   0.623   4.880   1.272  0.0000  0.0000  0.0000
   21OM     OM1   21   0.800   4.763   1.408  0.0000  0.0000  0.0000
   22OM     OM1   22   5.851   6.763   1.103  0.0000  0.0000  0.0000
   23OM     OM1   23   5.642   6.899   1.136  0.0000  0.0000  0.0000
   24OM     OM1   24   5.807   6.891   1.325  0.0000  0.0000  0.0000
   25OM     OM1   25   5.860   7.028   1.094  0.0000  0.0000  0.0000
   26OM     OM1   26   1.676   0.657   0.783  0.0000  0.0000  0.0000
   27OM     OM1   27   1.736   0.820   0.585  0.0000  0.0000  0.0000
   28OM     OM1   28   1.540   0.882   0.746  0.0000  0.0000  0.0000
   29OM     OM1   29   1.780   0.879   0.845  0.0000  0.0000  0.0000
   30OM     OM1   30   7.849   5.850   8.421  0.0000  0.0000  0.0000
   31OM     OM1   31   7.985   6.014   8.263  0.0000  0.0000  0.0000
   32OM     OM1   32   8.098   5.912   8.471  0.0000  0.0000  0.0000
   33OM     OM1   33   8.628   6.176   0.217  0.0000  0.0000  0.0000
   34OM     OM1   34   8.779   6.098   0.411  0.0000  0.0000  0.0000
   35OM     OM1   35   8.879   6.157   0.168  0.0000  0.0000  0.0000
   36OM     OM1   36   8.789   6.343   0.336  0.0000  0.0000  0.0000
   37OM     OM1   37   3.322   6.641   9.495  0.0000  0.0000  0.0000
   38OM     OM1   38   3.547   6.744   9.443  0.0000  0.0000  0.0000
   39OM     OM1   39   3.343   6.889   9.543  0.0000  0.0000  0.0000
   40OM     OM1   40   3.363   6.841   9.296  0.0000  0.0000  0.0000
   41OM     OM1   41   1.367   3.048   9.419  0.0000  0.0000  0.0000
   42OM     OM1   42   1.338   2.942   0.050  0.0000  0.0000  0.0000
   43OM     OM1   43   1.158   3.115   9.552  0.0000  0.0000  0.0000
   44OM     OM1   44   1.394   3.195   0.029  0.0000  0.0000  0.0000
   45OM     OM1   45   8.070   0.953   8.354  0.0000  0.0000  0.0000
   46OM     OM1   46   7.824   0.977   8.403  0.0000  0.0000  0.0000
   47OM     OM1   47   7.945   1.199   8.390  0.0000  0.0000  0.0000
   48OM     OM1   48   8.003   1.037   8.588  0.0000  0.0000  0.0000
   49OM     OM1   49   1.547   8.029   9.196  0.0000  0.0000  0.0000
   50OM     OM1   50   1.334   8.153   9.246  0.0000  0.0000  0.0000
   51OM     OM1   51   1.366   8.058   9.004  0.0000  0.0000  0.0000
   52OM     OM1   52   1.521   8.256   9.074  0.0000  0.0000  0.0000
   53OM     OM1   53   7.057   6.501   8.859  0.0000  0.0000  0.0000
   54OM     OM1   54   6.858   6.394   8.726  0.0000  0.0000  0.0000
   55OM     OM1   55   7.019   6.571   8.608  0.0000  0.0000  0.0000
   56OM     OM1   56   6.844   6.643   8.788  0.0000  0.0000  0.0000
   57OM     OM1   57   3.872   1.024   0.005  0.0000  0.0000  0.0000
   58OM     OM1   58   3.860   1.011   0.266  0.0000  0.0000  0.0000
   59OM     OM1   59   3.972   1.210   0.139  0.0000  0.0000  0.0000
   60OM     OM1   60   3.714   1.197   0.148  0.0000  0.0000  0.0000
   61OM     OM1   61   1.819   1.420   8.277  0.0000  0.0000  0.0000
   62OM     OM1   62   1.904   1.546   8.489  0.0000  0.0000  0.0000
   63OM     OM1   63   1.774   1.339   8.524  0.0000  0.0000  0.0000
   64OM     OM1   64   1.641   1.538   8.424  0.0000  0.0000  0.0000
   65OM     OM1   65   1.223   3.136   8.350  0.0000  0.0000  0.0000
   66OM     OM1   66   1.481   3.129   8.265  0.0000  0.0000  0.0000
   67OM     OM1   67   1.416   3.199   8.505  0.0000  0.0000  0.0000
   68OM     OM1   68   0.971   2.326   1.307  0.0000  0.0000  0.0000
   69OM     OM1   69   0.716   2.352   1.363  0.0000  0.0000  0.0000
   70OM     OM1   70   4.139   4.598   0.306  0.0000  0.0000  0.0000
   71OM     OM1   71   4.191   4.691   0.052  0.0000  0.0000  0.0000
   72OM     OM1   72   3.991   4.544   0.084  0.0000  0.0000  0.0000
   73OM     OM1   73   4.234   4.449   0.122  0.0000  0.0000  0.0000
   74OM     OM1   74   4.776   0.132   1.192  0.0000  0.0000  0.0000
   75OM     OM1   75   4.949   9.547   1.238  0.0000  0.0000  0.0000
   76OM     OM1   76   4.835   9.573   0.998  0.0000  0.0000  0.0000
   77OM     OM1   77   4.702   9.489   1.216  0.0000  0.0000  0.0000
   78OM     OM1   78   3.653   3.941   8.624  0.0000  0.0000  0.0000
   79OM     OM1   79   3.551   4.179   8.622  0.0000  0.0000  0.0000
   80OM     OM1   80   3.785   4.156   8.699  0.0000  0.0000  0.0000
   81OM     OM1   81   3.608   4.054   8.858  0.0000  0.0000  0.0000
   82OM     OM1   82   3.015   0.836   0.738  0.0000  0.0000  0.0000
   83OM     OM1   83   2.765   0.901   0.710  0.0000  0.0000  0.0000
   84OM     OM1   84   2.904   1.014   0.903  0.0000  0.0000  0.0000
   85OM     OM1   85   2.942   1.075   0.656  0.0000  0.0000  0.0000
   86OM     OM1   86   5.584   1.997   0.276  0.0000  0.0000  0.0000
   87OM     OM1   87   5.938   1.806   0.549  0.0000  0.0000  0.0000
   88OM     OM1   88   5.810   1.991   0.406  0.0000  0.0000  0.0000
   89OM     OM1   89   6.031   1.875   0.314  0.0000  0.0000  0.0000
   90OM     OM1   90   8.893   3.879   1.299  0.0000  0.0000  0.0000
   91OM     OM1   91   8.870   4.125   1.214  0.0000  0.0000  0.0000
   92OM     OM1   92   8.667   4.015   1.336  0.0000  0.0000  0.0000
   93OM     OM1   93   0.226   1.506   9.077  0.0000  0.0000  0.0000
   94OM     OM1   94   0.354   1.605   9.290  0.0000  0.0000  0.0000
   95OM     OM1   95   0.462   1.420   9.150  0.0000  0.0000  0.0000
   96OM     OM1   96   0.250   1.361   9.280  0.0000  0.0000  0.0000
   97OM     OM1   97   5.872   1.390   9.564  0.0000  0.0000  0.0000
   98OM     OM1   98   5.679   1.502   9.419  0.0000  0.0000  0.0000
   99OM     OM1   99   5.830   1.332   9.303  0.0000  0.0000  0.0000
  100OM     OM1  100   5.661   1.256   9.491  0.0000  0.0000  0.0000
  101OM     OM1  101   0.572   3.154   0.300  0.0000  0.0000  0.0000
  102OM     OM1  102   0.338   3.258   0.305  0.0000  0.0000  0.0000
  103OM     OM1  103   0.403   3.094   0.112  0.0000  0.0000  0.0000
  104OM     OM1  104   0.373   2.995   0.358  0.0000  0.0000  0.0000
  105OM     OM1  105   0.400   2.090   0.499  0.0000  0.0000  0.0000
  106OM     OM1  106   0.563   2.271   0.399  0.0000  0.0000  0.0000
  107OM     OM1  107   0.590   2.193   0.647  0.0000  0.0000  0.0000
  108OM     OM1  108   0.646   2.025   0.452  0.0000  0.0000  0.0000
  109OM     OM1  109   7.637   5.051   0.471  0.0000  0.0000  0.0000
  110OM     OM1  110   7.650   5.169   0.244  0.0000  0.0000  0.0000
  111OM     OM1  111   7.488   5.263   0.420  0.0000  0.0000  0.0000
  112OM     OM1  112   7.429   5.034   0.309  0.0000  0.0000  0.0000
  113OM     OM1  113   9.540   0.195   9.184  0.0000  0.0000  0.0000
  114OM     OM1  114   9.300   0.234   9.254  0.0000  0.0000  0.0000
  115OM     OM1  115   9.455   0.150   9.441  0.0000  0.0000  0.0000
  116OM     OM1  116   9.400   9.594   9.246  0.0000  0.0000  0.0000
  117OM     OM1  117   4.084   2.263   9.557  0.0000  0.0000  0.0000
  118OM     OM1  118   3.867   2.369   9.432  0.0000  0.0000  0.0000
  119OM     OM1  119   4.106   2.462   9.419  0.0000  0.0000  0.0000
  120OM     OM1  120   3.968   2.477   0.045  0.0000  0.0000  0.0000
  121OM     OM1  121   1.115   2.547   1.307  0.0000  0.0000  0.0000
  122OM     OM1  122   1.181   2.799   1.336  0.0000  0.0000  0.0000
  123OM     OM1  123   0.591   6.835   8.355  0.0000  0.0000  0.0000
  124OM     OM1  124   0.524   7.077   8.419  0.0000  0.0000  0.0000
  125OM     OM1  125   0.355   6.951   8.286  0.0000  0.0000  0.0000
  126OM     OM1  126   5.383   5.213   8.952  0.0000  0.0000  0.0000
  127OM     OM1  127   5.584   5.105   9.076  0.0000  0.0000  0.0000
  128OM     OM1  128   5.379   5.207   9.211  0.0000  0.0000  0.0000
  129OM     OM1  129   5.349   4.987   9.069  0.0000  0.0000  0.0000
  130OM     OM1  130   6.070   8.666   9.246  0.0000  0.0000  0.0000
  131OM     OM1  131   5.954   8.843   9.091  0.0000  0.0000  0.0000
  132OM     OM1  132   6.145   8.700   8.991  0.0000  0.0000  0.0000
  133OM     OM1  133   5.913   8.589   9.054  0.0000  0.0000  0.0000
  134OM     OM1  134   5.833   5.151   9.161  0.0000  0.0000  0.0000
  135OM     OM1  135   5.779   4.919   9.074  0.0000  0.0000  0.0000
  136OM     OM1  136   5.664   5.001   9.292  0.0000  0.0000  0.0000
  137OM     OM1  137   1.291   5.071   1.262  0.0000  0.0000  0.0000
  138OM     OM1  138   1.526   5.031   1.183  0.0000  0.0000  0.0000
  139OM     OM1  139   1.430   5.275   1.167  0.0000  0.0000  0.0000
  140OM     OM1  140   0.504   3.714   8.704  0.0000  0.0000  0.0000
  141OM     OM1  141   0.580   3.962   8.751  0.0000  0.0000  0.0000
  142OM     OM1  142   0.546   3.897   8.511  0.0000  0.0000  0.0000
  143OM     OM1  143   0.745   3.786   8.641  0.0000  0.0000  0.0000
  144OM     OM1  144   6.183   2.314   8.600  0.0000  0.0000  0.0000
  145OM     OM1  145   6.079   2.282   8.362  0.0000  0.0000  0.0000
  146OM     OM1  146   6.272   2.121   8.455  0.0000  0.0000  0.0000
  147OM     OM1  147   6.314   2.367   8.368  0.0000  0.0000  0.0000
  148OM     OM1  148   2.487   3.401   0.628  0.0000  0.0000  0.0000
  149OM     OM1  149   2.182   3.435   0.300  0.0000  0.0000  0.0000
  150OM     OM1  150   2.437   3.449   0.365  0.0000  0.0000  0.0000
  151OM     OM1  151   2.363   3.449   0.112  0.0000  0.0000  0.0000
  152OM     OM1  152   7.793   1.409   0.247  0.0000  0.0000  0.0000
  153OM     OM1  153   7.579   1.487   0.155  0.0000  0.0000  0.0000
  154OM     OM1  154   7.721   1.677   0.262  0.0000  0.0000  0.0000
  155OM     OM1  155   7.624   1.504   0.421  0.0000  0.0000  0.0000
  156OM     OM1  156   9.081   4.290   0.029  0.0000  0.0000  0.0000
  157OM     OM1  157   8.916   4.442   9.516  0.0000  0.0000  0.0000
  158OM     OM1  158   9.133   4.383   9.373  0.0000  0.0000  0.0000
  159OM     OM1  159   4.999   2.474   9.019  0.0000  0.0000  0.0000
  160OM     OM1  160   5.001   2.950   8.799  0.0000  0.0000  0.0000
  161OM     OM1  161   5.065   2.696   8.732  0.0000  0.0000  0.0000
  162OM     OM1  162   5.088   2.775   8.977  0.0000  0.0000  0.0000
  163OM     OM1  163   8.202   7.601   0.579  0.0000  0.0000  0.0000
  164OM     OM1  164   8.168   7.350   0.675  0.0000  0.0000  0.0000
  165OM     OM1  165   8.288   7.537   0.813  0.0000  0.0000  0.0000
  166OM     OM1  166   8.029   7.547   0.768  0.0000  0.0000  0.0000
  167OM     OM1  167   1.535   1.299   8.604  0.0000  0.0000  0.0000
  168OM     OM1  168   1.692   1.115   8.472  0.0000  0.0000  0.0000
  169OM     OM1  169   1.727   1.164   8.724  0.0000  0.0000  0.0000
  170OM     OM1  170   0.812   1.844   0.542  0.0000  0.0000  0.0000
  171OM     OM1  171   0.784   1.928   0.786  0.0000  0.0000  0.0000
  172OM     OM1  172   0.803   1.677   0.745  0.0000  0.0000  0.0000
  173OM     OM1  173   1.018   1.841   0.708  0.0000  0.0000  0.0000
  174OM     OM1  174   5.931   0.035   1.027  0.0000  0.0000  0.0000
  175OM     OM1  175   5.814   0.254   1.055  0.0000  0.0000  0.0000
  176OM     OM1  176   5.943   0.196   0.826  0.0000  0.0000  0.0000
  177OM     OM1  177   5.715   0.094   0.876  0.0000  0.0000  0.0000
  178OM     OM1  178   4.793   7.092   1.352  0.0000  0.0000  0.0000
  179OM     OM1  179   4.697   7.267   1.188  0.0000  0.0000  0.0000
  180OM     OM1  180   5.520   6.370   1.090  0.0000  0.0000  0.0000
  181OM     OM1  181   5.299   6.238   1.040  0.0000  0.0000  0.0000
  182OM     OM1  182   5.532   6.199   0.903  0.0000  0.0000  0.0000
  183OM     OM1  183   5.383   6.406   0.867  0.0000  0.0000  0.0000
  184OM     OM1  184   5.559   3.438   0.585  0.0000  0.0000  0.0000
  185OM     OM1  185   5.398   3.320   0.410  0.0000  0.0000  0.0000
  186OM     OM1  186   5.655   3.329   0.377  0.0000  0.0000  0.0000
  187OM     OM1  187   5.540   3.178   0.566  0.0000  0.0000  0.0000
  188OM     OM1  188   7.310   6.443   0.301  0.0000  0.0000  0.0000
  189OM     OM1  189   7.319   6.705   0.283  0.0000  0.0000  0.0000
  190OM     OM1  190   7.362   6.556   0.076  0.0000  0.0000  0.0000
  191OM     OM1  191   7.119   6.571   0.177  0.0000  0.0000  0.0000
  192OM     OM1  192   6.363   2.511   1.248  0.0000  0.0000  0.0000
  193OM     OM1  193   8.654   0.792   0.467  0.0000  0.0000  0.0000
  194OM     OM1  194   8.924   0.776   0.521  0.0000  0.0000  0.0000
  195OM     OM1  195   8.759   0.929   0.648  0.0000  0.0000  0.0000
  196OM     OM1  196   8.761   0.664   0.677  0.0000  0.0000  0.0000
  197OM     OM1  197   7.182   3.343   9.016  0.0000  0.0000  0.0000
  198OM     OM1  198   7.149   3.388   9.272  0.0000  0.0000  0.0000
  199OM     OM1  199   7.361   3.476   9.150  0.0000  0.0000  0.0000
  200OM     OM1  200   7.122   3.583   9.112  0.0000  0.0000  0.0000
  201OM     OM1  201   3.453   3.847   0.779  0.0000  0.0000  0.0000
  202OM     OM1  202   3.345   3.705   0.973  0.0000  0.0000  0.0000
  203OM     OM1  203   3.502   3.602   0.803  0.0000  0.0000  0.0000
  204OM     OM1  204   3.484   3.585   1.156  0.0000  0.0000  0.0000
  205OM     OM1  205   2.434   2.307   1.305  0.0000  0.0000  0.0000
  206OM     OM1  206   2.383   2.604   0.889  0.0000  0.0000  0.0000
  207OM     OM1  207   2.369   2.480   1.117  0.0000  0.0000  0.0000
  208OM     OM1  208   2.573   2.642   1.061  0.0000  0.0000  0.0000
  209OM     OM1  209   3.466   8.084   0.332  0.0000  0.0000  0.0000
  210OM     OM1  210   3.399   7.844   0.242  0.0000  0.0000  0.0000
  211OM     OM1  211   3.243   7.974   0.415  0.0000  0.0000  0.0000
  212OM     OM1  212   3.475   7.861   0.478  0.0000  0.0000  0.0000
  213OM     OM1  213   7.074   5.181   9.401  0.0000  0.0000  0.0000
  214OM     OM1  214   7.293   5.119   9.531  0.0000  0.0000  0.0000
  215OM     OM1  215   7.447   5.070   9.326  0.0000  0.0000  0.0000
  216OM     OM1  216   7.391   4.877   9.492  0.0000  0.0000  0.0000
  217OM     OM1  217   7.914   1.375   8.574  0.0000  0.0000  0.0000
  218OM     OM1  218   8.078   1.571   8.549  0.0000  0.0000  0.0000
  219OM     OM1  219   8.139   1.384   8.711  0.0000  0.0000  0.0000
  220OM     OM1  220   7.936   1.545   8.771  0.0000  0.0000  0.0000
  221OM     OM1  221   8.608   8.977   8.261  0.0000  0.0000  0.0000
  222OM     OM1  222   8.515   9.220   8.363  0.0000  0.0000  0.0000
  223OM     OM1  223   8.483   8.987   8.482  0.0000  0.0000  0.0000
  224OM     OM1  224   6.421   3.457   0.066  0.0000  0.0000  0.0000
  225OM     OM1  225   6.335   3.241   9.548  0.0000  0.0000  0.0000
  226OM     OM1  226   6.219   3.324   0.153  0.0000  0.0000  0.0000
  227OM     OM1  227   6.188   3.452   9.537  0.0000  0.0000  0.0000
  228OM     OM1  228   7.103   0.391   0.759  0.0000  0.0000  0.0000
  229OM     OM1  229   6.987   0.530   0.950  0.0000  0.0000  0.0000
  230OM     OM1  230   7.119   0.648   0.757  0.0000  0.0000  0.0000
  231OM     OM1  231   6.886   0.540   0.715  0.0000  0.0000  0.0000
  232OM     OM1  232   7.489   5.682   1.217  0.0000  0.0000  0.0000
  233OM     OM1  233   7.334   5.473   1.246  0.0000  0.0000  0.0000
  234OM     OM1  234   7.230   5.710   1.184  0.0000  0.0000  0.0000
  235OM     OM1  235   6.350   0.966   0.439  0.0000  0.0000  0.0000
  236OM     OM1  236   6.448   0.804   0.618  0.0000  0.0000  0.0000
  237OM     OM1  237   6.218   0.764   0.506  0.0000  0.0000  0.0000
  238OM     OM1  238   6.239   0.954   0.685  0.0000  0.0000  0.0000
  239OM     OM1  239   3.460   1.191   8.257  0.0000  0.0000  0.0000
  240OM     OM1  240   3.515   1.357   8.454  0.0000  0.0000  0.0000
  241OM     OM1  241   3.699   1.255   8.305  0.0000  0.0000  0.0000
  242OM     OM1  242   2.805   1.571   8.416  0.0000  0.0000  0.0000
  243OM     OM1  243   2.576   1.454   8.447  0.0000  0.0000  0.0000
  244OM     OM1  244   2.795   1.312   8.454  0.0000  0.0000  0.0000
  245OM     OM1  245   9.522   1.010   1.457  0.0000  0.0000  0.0000
  246OM     OM1  246   8.748   5.838   9.171  0.0000  0.0000  0.0000
  247OM     OM1  247   8.506   5.953   9.138  0.0000  0.0000  0.0000
  248OM     OM1  248   8.673   5.953   8.947  0.0000  0.0000  0.0000
  249OM     OM1  249   8.727   6.096   9.156  0.0000  0.0000  0.0000
  250OM     OM1  250   8.103   4.849   0.978  0.0000  0.0000  0.0000
  251OM     OM1  251   8.139   5.174   1.023  0.0000  0.0000  0.0000
  252OM     OM1  252   8.034   5.183   0.784  0.0000  0.0000  0.0000
  253OM     OM1  253   8.241   5.035   0.844  0.0000  0.0000  0.0000
  254OM     OM1  254   8.497   1.884   1.180  0.0000  0.0000  0.0000
  255OM     OM1  255   8.442   1.632   1.226  0.0000  0.0000  0.0000
  256OM     OM1  256   6.318   1.387   8.936  0.0000  0.0000  0.0000
  257OM     OM1  257   6.251   1.549   9.131  0.0000  0.0000  0.0000
  258OM     OM1  258   6.487   1.569   9.019  0.0000  0.0000  0.0000
  259OM     OM1  259   6.265   1.627   8.882  0.0000  0.0000  0.0000
  260OM     OM1  260   9.027   6.910   8.352  0.0000  0.0000  0.0000
  261OM     OM1  261   9.212   6.856   8.545  0.0000  0.0000  0.0000
  262OM     OM1  262   9.197   6.711   8.331  0.0000  0.0000  0.0000
  263OM     OM1  263   9.274   6.966   8.319  0.0000  0.0000  0.0000
  264OM     OM1  264   7.966   2.439   9.251  0.0000  0.0000  0.0000
  265OM     OM1  265   8.083   2.641   9.147  0.0000  0.0000  0.0000
  266OM     OM1  266   8.068   2.629   9.405  0.0000  0.0000  0.0000
  267OM     OM1  267   7.854   2.681   9.260  0.0000  0.0000  0.0000
  268OM     OM1  268   9.315   5.962   9.321  0.0000  0.0000  0.0000
  269OM     OM1  269   9.338   6.186   9.194  0.0000  0.0000  0.0000
  270OM     OM1  270   9.196   6.001   9.087  0.0000  0.0000  0.0000
  271OM     OM1  271   9.113   6.131   9.308  0.0000  0.0000  0.0000
  272OM     OM1  272   8.542   2.762   8.373  0.0000  0.0000  0.0000
  273OM     OM1  273   8.608   2.559   8.538  0.0000  0.0000  0.0000
  274OM     OM1  274   8.795   2.697   8.399  0.0000  0.0000  0.0000
  275OM     OM1  275   5.282   3.521   0.706  0.0000  0.0000  0.0000
  276OM     OM1  276   5.337   3.631   0.941  0.0000  0.0000  0.0000
  277OM     OM1  277   5.302   3.781   0.729  0.0000  0.0000  0.0000
  278OM     OM1  278   5.516   3.628   0.753  0.0000  0.0000  0.0000
  279OM     OM1  279   7.720   1.105   9.196  0.0000  0.0000  0.0000
  280OM     OM1  280   7.510   1.240   9.157  0.0000  0.0000  0.0000
  281OM     OM1  281   7.661   1.165   8.941  0.0000  0.0000  0.0000
  282OM     OM1  282   7.742   1.344   9.105  0.0000  0.0000  0.0000
  283OM     OM1  283   6.948   3.590   1.229  0.0000  0.0000  0.0000
  284OM     OM1  284   7.036   3.361   1.134  0.0000  0.0000  0.0000
  285OM     OM1  285   7.193   3.533   1.255  0.0000  0.0000  0.0000
  286OM     OM1  286   6.850   5.966   0.512  0.0000  0.0000  0.0000
  287OM     OM1  287   6.841   6.152   0.679  0.0000  0.0000  0.0000
  288OM     OM1  288   7.072   6.103   0.569  0.0000  0.0000  0.0000
  289OM     OM1  289   6.895   6.204   0.413  0.0000  0.0000  0.0000
  290OM     OM1  290   8.891   7.514   9.452  0.0000  0.0000  0.0000
  291OM     OM1  291   8.816   7.476   9.199  0.0000  0.0000  0.0000
  292OM     OM1  292   8.666   7.599   9.378  0.0000  0.0000  0.0000
  293OM     OM1  293   8.842   7.344   0.046  0.0000  0.0000  0.0000
  294OM     OM1  294   3.010   1.617   9.529  0.0000  0.0000  0.0000
  295OM     OM1  295   3.034   1.546   0.181  0.0000  0.0000  0.0000
  296OM     OM1  296   3.102   1.390   9.585  0.0000  0.0000  0.0000
  297OM     OM1  297   3.156   1.285   9.355  0.0000  0.0000  0.0000
  298OM     OM1  298   1.457   4.417   0.196  0.0000  0.0000  0.0000
  299OM     OM1  299   1.677   4.320   0.304  0.0000  0.0000  0.0000
  300OM     OM1  300   1.630   4.280   0.051  0.0000  0.0000  0.0000
  301OM     OM1  301   1.501   4.152   0.227  0.0000  0.0000  0.0000
  302OM     OM1  302   2.396   4.040   0.187  0.0000  0.0000  0.0000
  303OM     OM1  303   2.217   3.891   0.287  0.0000  0.0000  0.0000
  304OM     OM1  304   2.144   4.126   0.215  0.0000  0.0000  0.0000
  305OM     OM1  305   2.312   4.118   0.409  0.0000  0.0000  0.0000
  306OM     OM1  306   3.314   1.915   1.263  0.0000  0.0000  0.0000
  307OM     OM1  307   3.355   1.737   1.057  0.0000  0.0000  0.0000
  308OM     OM1  308   3.122   1.830   1.129  0.0000  0.0000  0.0000
  309OM     OM1  309   3.253   1.661   1.282  0.0000  0.0000  0.0000
  310OM     OM1  310   5.579   0.015   9.194  0.0000  0.0000  0.0000
  311OM     OM1  311   5.637   0.035   9.443  0.0000  0.0000  0.0000
  312OM     OM1  312   5.457   0.192   9.328  0.0000  0.0000  0.0000
  313OM     OM1  313   5.718   0.221   9.288  0.0000  0.0000  0.0000
  314OM     OM1  314   9.450   6.834   8.208  0.0000  0.0000  0.0000
  315OM     OM1  315   9.508   6.981   8.423  0.0000  0.0000  0.0000
  316OM     OM1  316   1.151   1.212   0.877  0.0000  0.0000  0.0000
  317OM     OM1  317   1.169   1.410   0.716  0.0000  0.0000  0.0000
  318OM     OM1  318   0.970   1.241   0.699  0.0000  0.0000  0.0000
  319OM     OM1  319   0.976   1.402   0.906  0.0000  0.0000  0.0000
  320OM     OM1  320   0.805   8.696   1.249  0.0000  0.0000  0.0000
  321OM     OM1  321   6.755   6.188   0.198  0.0000  0.0000  0.0000
  322OM     OM1  322   6.939   6.380   0.217  0.0000  0.0000  0.0000
  323OM     OM1  323   7.014   6.129   0.206  0.0000  0.0000  0.0000
  324OM     OM1  324   6.038   5.656   9.596  0.0000  0.0000  0.0000
  325OM     OM1  325   5.942   5.461   9.467  0.0000  0.0000  0.0000
  326OM     OM1  326   6.090   5.411   0.078  0.0000  0.0000  0.0000
  327OM     OM1  327   5.838   5.500   0.088  0.0000  0.0000  0.0000
  328OM     OM1  328   4.270   7.350   8.861  0.0000  0.0000  0.0000
  329OM     OM1  329   4.196   7.276   9.102  0.0000  0.0000  0.0000
  330OM     OM1  330   4.026   7.402   8.925  0.0000  0.0000  0.0000
  331OM     OM1  331   4.114   7.159   8.887  0.0000  0.0000  0.0000
  332OM     OM1  332   4.050   8.987   0.071  0.0000  0.0000  0.0000
  333OM     OM1  333   4.081   8.835   0.283  0.0000  0.0000  0.0000
  334OM     OM1  334   4.201   8.782   0.047  0.0000  0.0000  0.0000
  335OM     OM1  335   4.277   8.985   0.194  0.0000  0.0000  0.0000
  336OM     OM1  336   0.183   4.704   9.372  0.0000  0.0000  0.0000
  337OM     OM1  337   0.029   4.798   9.554  0.0000  0.0000  0.0000
  338OM     OM1  338   0.024   4.782   9.044  0.0000  0.0000  0.0000
  339OM     OM1  339   0.080   4.950   9.346  0.0000  0.0000  0.0000
  340OM     OM1  340   8.753   2.714   9.384  0.0000  0.0000  0.0000
  341OM     OM1  341   8.912   2.897   9.280  0.0000  0.0000  0.0000
  342OM     OM1  342   9.011   2.685   9.382  0.0000  0.0000  0.0000
  343OM     OM1  343   8.883   2.651   9.162  0.0000  0.0000  0.0000
  344OM     OM1  344   0.052   7.166   9.156  0.0000  0.0000  0.0000
  345OM     OM1  345   0.072   7.054   8.919  0.0000  0.0000  0.0000
  346OM     OM1  346   9.529   7.263   8.951  0.0000  0.0000  0.0000
  347OM     OM1  347   0.189   7.281   8.960  0.0000  0.0000  0.0000
  348OM     OM1  348   4.227   2.120   8.336  0.0000  0.0000  0.0000
  349OM     OM1  349   4.280   1.944   8.519  0.0000  0.0000  0.0000
  350OM     OM1  350   4.426   1.959   8.313  0.0000  0.0000  0.0000
  351OM     OM1  351   4.664   1.967   8.424  0.0000  0.0000  0.0000
  352OM     OM1  352   7.338   3.139   0.703  0.0000  0.0000  0.0000
  353OM     OM1  353   7.206   3.336   0.582  0.0000  0.0000  0.0000
  354OM     OM1  354   7.408   3.394   0.728  0.0000  0.0000  0.0000
  355OM     OM1  355   7.449   3.255   0.506  0.0000  0.0000  0.0000
  356OM     OM1  356   9.117   0.694   1.174  0.0000  0.0000  0.0000
  357OM     OM1  357   9.370   0.648   1.265  0.0000  0.0000  0.0000
  358OM     OM1  358   9.328   0.618   1.019  0.0000  0.0000  0.0000
  359OM     OM1  359   9.202   0.462   1.183  0.0000  0.0000  0.0000
  360OM     OM1  360   4.166   5.054   0.260  0.0000  0.0000  0.0000
  361OM     OM1  361   4.417   5.143   0.271  0.0000  0.0000  0.0000
  362OM     OM1  362   4.346   4.980   0.082  0.0000  0.0000  0.0000
  363OM     OM1  363   4.259   5.229   0.091  0.0000  0.0000  0.0000
  364OM     OM1  364   8.231   8.459   0.799  0.0000  0.0000  0.0000
  365OM     OM1  365   8.412   8.582   0.934  0.0000  0.0000  0.0000
  366OM     OM1  366   8.255   8.728   0.780  0.0000  0.0000  0.0000
  367OM     OM1  367   8.421   8.578   0.668  0.0000  0.0000  0.0000
  368OM     OM1  368   5.497   4.634   8.592  0.0000  0.0000  0.0000
  369OM     OM1  369   5.572   4.408   8.492  0.0000  0.0000  0.0000
  370OM     OM1  370   5.312   4.465   8.513  0.0000  0.0000  0.0000
  371OM     OM1  371   8.915   7.695   8.571  0.0000  0.0000  0.0000
  372OM     OM1  372   9.087   7.514   8.509  0.0000  0.0000  0.0000
  373OM     OM1  373   9.154   7.685   8.685  0.0000  0.0000  0.0000
  374OM     OM1  374   9.324   7.490   8.397  0.0000  0.0000  0.0000
  375OM     OM1  375   4.600   8.953   8.755  0.0000  0.0000  0.0000
  376OM     OM1  376   4.695   8.708   8.692  0.0000  0.0000  0.0000
  377OM     OM1  377   4.318   8.889   8.518  0.0000  0.0000  0.0000
  378OM     OM1  378   4.448   8.748   8.695  0.0000  0.0000  0.0000
  379OM     OM1  379   1.308   6.287   0.119  0.0000  0.0000  0.0000
  380OM     OM1  380   1.368   6.538   0.062  0.0000  0.0000  0.0000
  381OM     OM1  381   1.297   6.441   0.312  0.0000  0.0000  0.0000
  382OM     OM1  382   1.527   6.394   0.206  0.0000  0.0000  0.0000
  383OM     OM1  383   9.034   2.996   1.146  0.0000  0.0000  0.0000
  384OM     OM1  384   9.124   2.810   0.980  0.0000  0.0000  0.0000
  385OM     OM1  385   9.020   3.024   0.885  0.0000  0.0000  0.0000
  386OM     OM1  386   9.252   3.037   0.998  0.0000  0.0000  0.0000
  387OM     OM1  387   8.043   7.722   0.105  0.0000  0.0000  0.0000
  388OM     OM1  388   8.280   7.816   0.057  0.0000  0.0000  0.0000
  389OM     OM1  389   8.086   7.987   0.055  0.0000  0.0000  0.0000
  390OM     OM1  390   8.107   7.809   9.469  0.0000  0.0000  0.0000
  391OM     OM1  391   0.539   9.503   9.428  0.0000  0.0000  0.0000
  392OM     OM1  392   0.573   9.504   9.162  0.0000  0.0000  0.0000
  393OM     OM1  393   0.337   9.439   9.269  0.0000  0.0000  0.0000
  394OM     OM1  394   0.532   9.282   9.294  0.0000  0.0000  0.0000
  395OM     OM1  395   7.506   2.344   1.253  0.0000  0.0000  0.0000
  396OM     OM1  396   7.585   2.573   1.154  0.0000  0.0000  0.0000
  397OM     OM1  397   3.855   8.862   9.019  0.0000  0.0000  0.0000
  398OM     OM1  398   3.979   8.984   9.290  0.0000  0.0000  0.0000
  399OM     OM1  399   4.102   8.829   8.997  0.0000  0.0000  0.0000
  400OM     OM1  400   3.958   8.743   9.215  0.0000  0.0000  0.0000
  401OM     OM1  401   8.653   0.894   0.112  0.0000  0.0000  0.0000
  402OM     OM1  402   8.699   1.120   0.233  0.0000  0.0000  0.0000
  403OM     OM1  403   8.894   0.946   0.249  0.0000  0.0000  0.0000
  404OM     OM1  404   8.844   1.026   0.020  0.0000  0.0000  0.0000
  405OM     OM1  405   9.594   4.316   0.142  0.0000  0.0000  0.0000
  406OM     OM1  406   9.485   4.079   0.111  0.0000  0.0000  0.0000
  407OM     OM1  407   0.377   4.066   0.192  0.0000  0.0000  0.0000
  408OM     OM1  408   0.121   4.116   0.223  0.0000  0.0000  0.0000
  409OM     OM1  409   6.371   9.075   0.065  0.0000  0.0000  0.0000
  410OM     OM1  410   6.348   9.324   0.145  0.0000  0.0000  0.0000
  411OM     OM1  411   6.253   9.246   9.522  0.0000  0.0000  0.0000
  412OM     OM1  412   6.144   9.173   0.155  0.0000  0.0000  0.0000
  413OM     OM1  413   6.672   4.479   8.636  0.0000  0.0000  0.0000
  414OM     OM1  414   6.683   4.215   8.619  0.0000  0.0000  0.0000
  415OM     OM1  415   6.899   4.348   8.586  0.0000  0.0000  0.0000
  416OM     OM1  416   6.732   4.367   8.403  0.0000  0.0000  0.0000
  417OM     OM1  417   0.241   0.114   1.188  0.0000  0.0000  0.0000
  418OM     OM1  418   0.218   0.379   1.242  0.0000  0.0000  0.0000
  419OM     OM1  419   0.449   0.254   1.185  0.0000  0.0000  0.0000
  420OM     OM1  420   5.111   9.124   0.351  0.0000  0.0000  0.0000
  421OM     OM1  421   5.196   9.290   0.177  0.0000  0.0000  0.0000
  422OM     OM1  422   4.939   9.271   0.210  0.0000  0.0000  0.0000
  423OM     OM1  423   5.059   9.067   0.101  0.0000  0.0000  0.0000
  424OM     OM1  424   9.064   6.344   9.466  0.0000  0.0000  0.0000
  425OM     OM1  425   8.984   6.108   9.536  0.0000  0.0000  0.0000
  426OM     OM1  426   8.871   6.226   9.333  0.0000  0.0000  0.0000
  427OM     OM1  427   2.040   0.158   9.300  0.0000  0.0000  0.0000
  428OM     OM1  428   1.881   0.246   9.488  0.0000  0.0000  0.0000
  429OM     OM1  429   1.859   0.003   9.404  0.0000  0.0000  0.0000
  430OM     OM1  430   1.797   0.205   9.240  0.0000  0.0000  0.0000
  431OM     OM1  431   5.093   4.113   8.931  0.0000  0.0000  0.0000
  432OM     OM1  432   5.170   4.068   9.172  0.0000  0.0000  0.0000
  433OM     OM1  433   5.134   4.310   9.101  0.0000  0.0000  0.0000
  434OM     OM1  434   4.927   4.150   9.126  0.0000  0.0000  0.0000
  435OM     OM1  435   8.476   7.817   8.577  0.0000  0.0000  0.0000
  436OM     OM1  436   8.571   7.709   8.791  0.0000  0.0000  0.0000
  437OM     OM1  437   8.745   7.524   8.853  0.0000  0.0000  0.0000
  438OM     OM1  438   8.813   7.770   8.882  0.0000  0.0000  0.0000
  439OM     OM1  439   5.272   8.416   1.231  0.0000  0.0000  0.0000
  440OM     OM1  440   5.024   8.414   1.320  0.0000  0.0000  0.0000
  441OM     OM1  441   1.530   6.691   8.265  0.0000  0.0000  0.0000
  442OM     OM1  442   1.781   6.686   8.327  0.0000  0.0000  0.0000
  443OM     OM1  443   1.595   6.579   8.497  0.0000  0.0000  0.0000
  444OM     OM1  444   1.611   6.834   8.457  0.0000  0.0000  0.0000
  445OM     OM1  445   9.038   1.891   9.374  0.0000  0.0000  0.0000
  446OM     OM1  446   9.247   2.050   9.373  0.0000  0.0000  0.0000
  447OM     OM1  447   9.273   1.789   9.428  0.0000  0.0000  0.0000
  448OM     OM1  448   9.155   1.952   9.596  0.0000  0.0000  0.0000
  449OM     OM1  449   8.203   2.455   8.307  0.0000  0.0000  0.0000
  450OM     OM1  450   8.088   2.212   8.280  0.0000  0.0000  0.0000
  451OM     OM1  451   7.243   5.350   0.422  0.0000  0.0000  0.0000
  452OM     OM1  452   7.043   5.226   0.306  0.0000  0.0000  0.0000
  453OM     OM1  453   6.991   5.439   0.435  0.0000  0.0000  0.0000
  454OM     OM1  454   7.128   5.447   0.208  0.0000  0.0000  0.0000
  455OM     OM1  455   2.227   8.066   0.938  0.0000  0.0000  0.0000
  456OM     OM1  456   2.021   8.184   0.849  0.0000  0.0000  0.0000
  457OM     OM1  457   2.211   8.332   0.945  0.0000  0.0000  0.0000
  458OM     OM1  458   2.068   8.203   1.105  0.0000  0.0000  0.0000
  459OM     OM1  459   8.117   4.362   1.282  0.0000  0.0000  0.0000
  460OM     OM1  460   8.268   4.565   1.380  0.0000  0.0000  0.0000
  461OM     OM1  461   4.856   3.289   9.202  0.0000  0.0000  0.0000
  462OM     OM1  462   4.601   3.291   9.255  0.0000  0.0000  0.0000
  463OM     OM1  463   4.725   3.071   9.188  0.0000  0.0000  0.0000
  464OM     OM1  464   4.673   3.270   9.013  0.0000  0.0000  0.0000
  465OM     OM1  465   5.763   5.910   0.386  0.0000  0.0000  0.0000
  466OM     OM1  466   5.727   6.092   0.191  0.0000  0.0000  0.0000
  467OM     OM1  467   5.686   6.132   0.454  0.0000  0.0000  0.0000
  468OM     OM1  468   5.928   6.113   0.348  0.0000  0.0000  0.0000
  469OM     OM1  469   8.911   6.664   8.493  0.0000  0.0000  0.0000
  470OM     OM1  470   9.025   6.786   8.693  0.0000  0.0000  0.0000
  471OM     OM1  471   8.803   6.890   8.578  0.0000  0.0000  0.0000
  472OM     OM1  472   8.797   6.674   8.726  0.0000  0.0000  0.0000
  473OM     OM1  473   2.313   3.862   8.383  0.0000  0.0000  0.0000
  474OM     OM1  474   2.242   3.621   8.417  0.0000  0.0000  0.0000
  475OM     OM1  475   0.525   3.438   9.516  0.0000  0.0000  0.0000
  476OM     OM1  476   0.740   3.457   0.053  0.0000  0.0000  0.0000
  477OM     OM1  477   0.663   3.224   9.575  0.0000  0.0000  0.0000
  478OM     OM1  478   0.752   3.397   9.399  0.0000  0.0000  0.0000
  479OM     OM1  479   7.765   1.383   1.007  0.0000  0.0000  0.0000
  480OM     OM1  480   7.419   1.421   1.105  0.0000  0.0000  0.0000
  481OM     OM1  481   7.639   0.999   1.038  0.0000  0.0000  0.0000
  482OM     OM1  482   7.754   1.188   1.173  0.0000  0.0000  0.0000
  483OM     OM1  483   2.015   5.361   0.090  0.0000  0.0000  0.0000
  484OM     OM1  484   2.005   5.131   0.214  0.0000  0.0000  0.0000
  485OM     OM1  485   1.795   5.209   0.089  0.0000  0.0000  0.0000
  486OM     OM1  486   1.868   5.337   0.311  0.0000  0.0000  0.0000
  487OM     OM1  487   5.137   7.479   9.190  0.0000  0.0000  0.0000
  488OM     OM1  488   5.028   7.715   9.215  0.0000  0.0000  0.0000
  489OM     OM1  489   5.289   7.688   9.244  0.0000  0.0000  0.0000
  490OM     OM1  490   5.179   7.675   9.013  0.0000  0.0000  0.0000
  491OM     OM1  491   6.658   3.791   8.311  0.0000  0.0000  0.0000
  492OM     OM1  492   6.626   3.699   8.547  0.0000  0.0000  0.0000
  493OM     OM1  493   6.666   3.966   8.513  0.0000  0.0000  0.0000
  494OM     OM1  494   6.854   3.787   8.502  0.0000  0.0000  0.0000
  495OM     OM1  495   0.458   1.220   8.979  0.0000  0.0000  0.0000
  496OM     OM1  496   0.150   0.942   9.011  0.0000  0.0000  0.0000
  497OM     OM1  497   0.408   0.968   8.965  0.0000  0.0000  0.0000
  498OM     OM1  498   0.309   0.733   9.026  0.0000  0.0000  0.0000
  499OM     OM1  499   8.129   1.214   1.136  0.0000  0.0000  0.0000
  500OM     OM1  500   3.494   9.447   8.971  0.0000  0.0000  0.0000
  501OM     OM1  501   3.533   9.514   9.222  0.0000  0.0000  0.0000
  502OM     OM1  502   3.630   9.297   9.124  0.0000  0.0000  0.0000
  503OM     OM1  503   3.726   9.543   9.054  0.0000  0.0000  0.0000
  504OM     OM1  504   6.442   5.606   9.366  0.0000  0.0000  0.0000
  505OM     OM1  505   6.394   5.622   9.114  0.0000  0.0000  0.0000
  506OM     OM1  506   6.371   5.392   9.233  0.0000  0.0000  0.0000
  507OM     OM1  507   6.207   5.607   9.287  0.0000  0.0000  0.0000
  508OM     OM1  508   9.536   3.042   0.123  0.0000  0.0000  0.0000
  509OM     OM1  509   9.466   2.864   0.306  0.0000  0.0000  0.0000
  510OM     OM1  510   9.343   3.103   0.287  0.0000  0.0000  0.0000
  511OM     OM1  511   9.311   2.924   0.102  0.0000  0.0000  0.0000
  512OM     OM1  512   0.830   6.803   8.265  0.0000  0.0000  0.0000
  513OM     OM1  513   0.776   6.816   8.533  0.0000  0.0000  0.0000
  514OM     OM1  514   0.730   6.610   8.395  0.0000  0.0000  0.0000
  515OM     OM1  515   3.148   5.116   1.081  0.0000  0.0000  0.0000
  516OM     OM1  516   2.955   5.291   1.102  0.0000  0.0000  0.0000
  517OM     OM1  517   2.915   5.029   1.140  0.0000  0.0000  0.0000
  518OM     OM1  518   5.587   5.133   1.195  0.0000  0.0000  0.0000
  519OM     OM1  519   5.731   5.009   1.369  0.0000  0.0000  0.0000
  520OM     OM1  520   5.561   4.871   1.215  0.0000  0.0000  0.0000
  521OM     OM1  521   6.458   7.678   1.233  0.0000  0.0000  0.0000
  522OM     OM1  522   6.328   7.667   1.010  0.0000  0.0000  0.0000
  523OM     OM1  523   6.611   7.865   1.308  0.0000  0.0000  0.0000
  524OM     OM1  524   6.204   7.753   1.210  0.0000  0.0000  0.0000
  525OM     OM1  525   7.460   8.519   0.554  0.0000  0.0000  0.0000
  526OM     OM1  526   7.513   8.284   0.638  0.0000  0.0000  0.0000
  527OM     OM1  527   7.571   8.341   0.388  0.0000  0.0000  0.0000
  528OM     OM1  528   7.720   8.435   0.570  0.0000  0.0000  0.0000
  529OM     OM1  529   1.184   4.233   9.305  0.0000  0.0000  0.0000
  530OM     OM1  530   1.159   3.982   9.256  0.0000  0.0000  0.0000
  531OM     OM1  531   0.968   4.102   9.401  0.0000  0.0000  0.0000
  532OM     OM1  532   0.998   4.153   9.150  0.0000  0.0000  0.0000
  533OM     OM1  533   3.933   9.577   9.201  0.0000  0.0000  0.0000
  534OM     OM1  534   3.955   9.506   8.952  0.0000  0.0000  0.0000
  535OM     OM1  535   3.906   0.141   8.989  0.0000  0.0000  0.0000
  536OM     OM1  536   3.474   6.351   1.059  0.0000  0.0000  0.0000
  537OM     OM1  537   3.505   6.612   1.030  0.0000  0.0000  0.0000
  538OM     OM1  538   3.712   6.459   1.017  0.0000  0.0000  0.0000
  539OM     OM1  539   1.575   8.690   8.858  0.0000  0.0000  0.0000
  540OM     OM1  540   1.330   8.606   8.881  0.0000  0.0000  0.0000
  541OM     OM1  541   1.459   8.707   9.086  0.0000  0.0000  0.0000
  542OM     OM1  542   1.383   8.864   8.884  0.0000  0.0000  0.0000
  543OM     OM1  543   5.557   3.463   0.180  0.0000  0.0000  0.0000
  544OM     OM1  544   5.746   3.281   0.144  0.0000  0.0000  0.0000
  545OM     OM1  545   5.804   3.510   0.246  0.0000  0.0000  0.0000
  546OM     OM1  546   8.809   6.342   9.112  0.0000  0.0000  0.0000
  547OM     OM1  547   8.619   6.289   9.286  0.0000  0.0000  0.0000
  548OM     OM1  548   7.974   3.984   0.575  0.0000  0.0000  0.0000
  549OM     OM1  549   7.945   4.206   0.712  0.0000  0.0000  0.0000
  550OM     OM1  550   7.822   3.998   0.797  0.0000  0.0000  0.0000
  551OM     OM1  551   7.747   4.126   0.585  0.0000  0.0000  0.0000
  552OM     OM1  552   5.103   6.192   9.553  0.0000  0.0000  0.0000
  553OM     OM1  553   4.944   6.402   9.572  0.0000  0.0000  0.0000
  554OM     OM1  554   5.091   6.378   9.360  0.0000  0.0000  0.0000
  555OM     OM1  555   4.868   6.561   0.176  0.0000  0.0000  0.0000
  556OM     OM1  556   8.482   8.423   1.138  0.0000  0.0000  0.0000
  557OM     OM1  557   8.440   8.169   1.143  0.0000  0.0000  0.0000
  558OM     OM1  558   8.674   8.269   1.213  0.0000  0.0000  0.0000
  559OM     OM1  559   6.797   1.297   8.484  0.0000  0.0000  0.0000
  560OM     OM1  560   6.760   1.037   8.423  0.0000  0.0000  0.0000
  561OM     OM1  561   6.968   1.122   8.563  0.0000  0.0000  0.0000
  562OM     OM1  562   2.863   2.494   8.888  0.0000  0.0000  0.0000
  563OM     OM1  563   2.696   2.409   8.722  0.0000  0.0000  0.0000
  564OM     OM1  564   2.863   2.235   8.827  0.0000  0.0000  0.0000
  565OM     OM1  565   2.675   2.333   8.977  0.0000  0.0000  0.0000
  566OM     OM1  566   6.211   6.817   8.532  0.0000  0.0000  0.0000
  567OM     OM1  567   6.343   6.953   8.711  0.0000  0.0000  0.0000
  568OM     OM1  568   6.335   7.049   8.471  0.0000  0.0000  0.0000
  569OM     OM1  569   6.467   6.829   8.513  0.0000  0.0000  0.0000
  570OM     OM1  570   9.144   7.905   0.573  0.0000  0.0000  0.0000
  571OM     OM1  571   9.391   7.996   0.568  0.0000  0.0000  0.0000
  572OM     OM1  572   9.183   8.142   0.657  0.0000  0.0000  0.0000
  573OM     OM1  573   9.226   8.082   0.400  0.0000  0.0000  0.0000
  574OM     OM1  574   7.133   3.974   0.245  0.0000  0.0000  0.0000
  575OM     OM1  575   7.367   4.061   0.181  0.0000  0.0000  0.0000
  576OM     OM1  576   7.330   3.796   0.218  0.0000  0.0000  0.0000
  577OM     OM1  577   7.342   3.949   0.415  0.0000  0.0000  0.0000
  578OM     OM1  578   1.100   4.973   1.098  0.0000  0.0000  0.0000
  579OM     OM1  579   1.087   5.202   1.213  0.0000  0.0000  0.0000
  580OM     OM1  580   0.384   7.382   8.775  0.0000  0.0000  0.0000
  581OM     OM1  581   0.159   7.311   8.711  0.0000  0.0000  0.0000
  582OM     OM1  582   0.199   7.524   8.882  0.0000  0.0000  0.0000
  583OM     OM1  583   6.072   9.107   8.363  0.0000  0.0000  0.0000
  584OM     OM1  584   5.882   9.270   8.442  0.0000  0.0000  0.0000
  585OM     OM1  585   8.055   5.841   9.222  0.0000  0.0000  0.0000
  586OM     OM1  586   8.185   5.647   9.128  0.0000  0.0000  0.0000
  587OM     OM1  587   8.257   5.892   9.064  0.0000  0.0000  0.0000
  588OM     OM1  588   8.052   5.778   8.953  0.0000  0.0000  0.0000
  589OM     OM1  589   1.715   9.357   0.006  0.0000  0.0000  0.0000
  590OM     OM1  590   1.495   9.237   0.037  0.0000  0.0000  0.0000
  591OM     OM1  591   1.552   9.463   0.173  0.0000  0.0000  0.0000
  592OM     OM1  592   1.485   9.475   9.530  0.0000  0.0000  0.0000
  593OM     OM1  593   2.275   5.611   9.167  0.0000  0.0000  0.0000
  594OM     OM1  594   2.519   5.628   9.246  0.0000  0.0000  0.0000
  595OM     OM1  595   2.432   5.797   9.065  0.0000  0.0000  0.0000
  596OM     OM1  596   2.357   5.822   9.304  0.0000  0.0000  0.0000
  597OM     OM1  597   9.042   5.126   1.049  0.0000  0.0000  0.0000
  598OM     OM1  598   9.093   5.056   1.293  0.0000  0.0000  0.0000
  599OM     OM1  599   9.228   4.950   1.098  0.0000  0.0000  0.0000
  600OM     OM1  600   8.983   4.873   1.135  0.0000  0.0000  0.0000
  601OM     OM1  601   3.508   0.286   1.343  0.0000  0.0000  0.0000
  602OM     OM1  602   3.681   0.260   1.150  0.0000  0.0000  0.0000
  603OM     OM1  603   3.738   0.388   1.366  0.0000  0.0000  0.0000
  604OM     OM1  604   7.614   0.006   9.054  0.0000  0.0000  0.0000
  605OM     OM1  605   7.639   0.270   9.115  0.0000  0.0000  0.0000
  606OM     OM1  606   7.831   0.115   9.153  0.0000  0.0000  0.0000
  607OM     OM1  607   7.609   0.080   9.298  0.0000  0.0000  0.0000
  608OM     OM1  608   7.926   0.118   8.909  0.0000  0.0000  0.0000
  609OM     OM1  609   8.077   0.051   9.115  0.0000  0.0000  0.0000
  610OM     OM1  610   8.015   0.293   9.081  0.0000  0.0000  0.0000
  611OM     OM1  611   6.188   3.234   0.789  0.0000  0.0000  0.0000
  612OM     OM1  612   6.048   3.247   1.014  0.0000  0.0000  0.0000
  613OM     OM1  613   5.966   3.391   0.815  0.0000  0.0000  0.0000
  614OM     OM1  614   5.958   3.123   0.802  0.0000  0.0000  0.0000
  615OM     OM1  615   1.646   2.426   9.311  0.0000  0.0000  0.0000
  616OM     OM1  616   1.678   2.310   9.556  0.0000  0.0000  0.0000
  617OM     OM1  617   1.511   2.509   9.522  0.0000  0.0000  0.0000
  618OM     OM1  618   1.773   2.542   9.502  0.0000  0.0000  0.0000
  619OM     OM1  619   6.797   1.334   1.260  0.0000  0.0000  0.0000
  620OM     OM1  620   6.604   1.495   1.322  0.0000  0.0000  0.0000
  621OM     OM1  621   6.775   1.564   1.131  0.0000  0.0000  0.0000
  622OM     OM1  622   0.138   7.047   0.307  0.0000  0.0000  0.0000
  623OM     OM1  623   9.522   6.975   0.170  0.0000  0.0000  0.0000
  624OM     OM1  624   9.572   6.869   0.401  0.0000  0.0000  0.0000
  625OM     OM1  625   0.117   6.815   0.189  0.0000  0.0000  0.0000
  626OM     OM1  626   4.524   9.196   8.854  0.0000  0.0000  0.0000
  627OM     OM1  627   4.654   9.029   8.989  0.0000  0.0000  0.0000
  628OM     OM1  628   4.789   9.124   8.790  0.0000  0.0000  0.0000
  629OM     OM1  629   8.476   7.716   9.523  0.0000  0.0000  0.0000
  630OM     OM1  630   8.498   7.737   9.254  0.0000  0.0000  0.0000
  631OM     OM1  631   8.406   7.529   9.363  0.0000  0.0000  0.0000
  632OM     OM1  632   4.801   0.008   9.081  0.0000  0.0000  0.0000
  633OM     OM1  633   4.855   0.274   9.074  0.0000  0.0000  0.0000
  634OM     OM1  634   4.998   0.111   9.208  0.0000  0.0000  0.0000
  635OM     OM1  635   4.756   0.157   9.289  0.0000  0.0000  0.0000
  636OM     OM1  636   8.710   6.556   0.057  0.0000  0.0000  0.0000
  637OM     OM1  637   8.890   6.745   0.086  0.0000  0.0000  0.0000
  638OM     OM1  638   8.962   6.493   0.056  0.0000  0.0000  0.0000
  639OM     OM1  639   8.849   6.578   0.280  0.0000  0.0000  0.0000
  640OM     OM1  640   0.406   0.713   0.172  0.0000  0.0000  0.0000
  641OM     OM1  641   0.512   0.477   0.192  0.0000  0.0000  0.0000
  642OM     OM1  642   0.328   0.507   0.016  0.0000  0.0000  0.0000
  643OM     OM1  643   0.561   0.625   9.584  0.0000  0.0000  0.0000
  644OM     OM1  644   8.863   2.071   9.433  0.0000  0.0000  0.0000
  645OM     OM1  645   8.883   1.989   9.190  0.0000  0.0000  0.0000
  646OM     OM1  646   8.776   1.832   9.372  0.0000  0.0000  0.0000
  647OM     OM1  647   7.809   7.710   0.402  0.0000  0.0000  0.0000
  648OM     OM1  648   7.639   7.814   0.232  0.0000  0.0000  0.0000
  649OM     OM1  649   7.578   7.673   0.456  0.0000  0.0000  0.0000
  650OM     OM1  650   7.664   7.558   0.235  0.0000  0.0000  0.0000
  651OM     OM1  651   9.454   0.749   8.514  0.0000  0.0000  0.0000
  652OM     OM1  652   0.057   0.706   8.371  0.0000  0.0000  0.0000
  653OM     OM1  653   0.081   0.838   8.596  0.0000  0.0000  0.0000
  654OM     OM1  654   9.556   0.945   8.395  0.0000  0.0000  0.0000
  655OM     OM1  655   8.437   7.631   0.159  0.0000  0.0000  0.0000
  656OM     OM1  656   8.540   7.864   0.120  0.0000  0.0000  0.0000
  657OM     OM1  657   8.519   1.612   0.138  0.0000  0.0000  0.0000
  658OM     OM1  658   8.265   1.639   0.201  0.0000  0.0000  0.0000
  659OM     OM1  659   8.346   1.442   0.050  0.0000  0.0000  0.0000
  660OM     OM1  660   8.070   1.558   0.361  0.0000  0.0000  0.0000
  661OM     OM1  661   0.312   8.846   0.740  0.0000  0.0000  0.0000
  662OM     OM1  662   0.090   8.918   0.638  0.0000  0.0000  0.0000
  663OM     OM1  663   0.081   9.164   0.570  0.0000  0.0000  0.0000
  664OM     OM1  664   0.266   8.798   0.483  0.0000  0.0000  0.0000
  665OM     OM1  665   9.581   1.253   0.351  0.0000  0.0000  0.0000
  666OM     OM1  666   9.487   1.069   0.513  0.0000  0.0000  0.0000
  667OM     OM1  667   0.126   1.429   0.478  0.0000  0.0000  0.0000
  668OM     OM1  668   0.212   1.335   0.255  0.0000  0.0000  0.0000
  669OM     OM1  669   0.424   5.300   8.488  0.0000  0.0000  0.0000
  670OM     OM1  670   0.638   5.147   8.474  0.0000  0.0000  0.0000
  671OM     OM1  671   5.621   4.250   9.153  0.0000  0.0000  0.0000
  672OM     OM1  672   5.662   4.022   9.041  0.0000  0.0000  0.0000
  673OM     OM1  673   5.828   4.234   9.321  0.0000  0.0000  0.0000
  674OM     OM1  674   5.423   4.090   9.101  0.0000  0.0000  0.0000
  675OM     OM1  675   0.515   4.238   1.287  0.0000  0.0000  0.0000
  676OM     OM1  676   0.735   4.168   1.418  0.0000  0.0000  0.0000
  677OM     OM1  677   0.570   3.994   1.315  0.0000  0.0000  0.0000
  678OM     OM1  678   3.410   3.698   0.069  0.0000  0.0000  0.0000
  679OM     OM1  679   3.318   3.461   0.015  0.0000  0.0000  0.0000
  680OM     OM1  680   3.306   3.632   9.431  0.0000  0.0000  0.0000
  681OM     OM1  681   3.383   3.938   0.146  0.0000  0.0000  0.0000
  682OM     OM1  682   8.945   5.656   9.150  0.0000  0.0000  0.0000
  683OM     OM1  683   9.138   5.841   8.882  0.0000  0.0000  0.0000
  684OM     OM1  684   9.162   5.498   9.152  0.0000  0.0000  0.0000
  685OM     OM1  685   9.063   5.595   8.930  0.0000  0.0000  0.0000
  686OM     OM1  686   7.510   2.220   8.573  0.0000  0.0000  0.0000
  687OM     OM1  687   7.351   2.015   8.592  0.0000  0.0000  0.0000
  688OM     OM1  688   7.329   2.201   8.760  0.0000  0.0000  0.0000
  689OM     OM1  689   7.550   2.060   8.771  0.0000  0.0000  0.0000
  690OM     OM1  690   8.540   0.726   9.540  0.0000  0.0000  0.0000
  691OM     OM1  691   8.422   0.836   0.327  0.0000  0.0000  0.0000
  692OM     OM1  692   8.396   0.886   0.076  0.0000  0.0000  0.0000
  693OM     OM1  693   0.443   4.189   8.777  0.0000  0.0000  0.0000
  694OM     OM1  694   0.632   4.343   8.688  0.0000  0.0000  0.0000
  695OM     OM1  695   0.383   4.382   8.603  0.0000  0.0000  0.0000
  696OM     OM1  696   0.517   4.163   8.538  0.0000  0.0000  0.0000
  697OM     OM1  697   2.827   6.880   8.694  0.0000  0.0000  0.0000
  698OM     OM1  698   2.596   6.951   8.620  0.0000  0.0000  0.0000
  699OM     OM1  699   2.722   7.072   8.822  0.0000  0.0000  0.0000
  700OM     OM1  700   2.614   6.832   8.850  0.0000  0.0000  0.0000
  701OM     OM1  701   5.881   0.412   0.705  0.0000  0.0000  0.0000
  702OM     OM1  702   6.112   0.392   0.809  0.0000  0.0000  0.0000
  703OM     OM1  703   6.051   0.248   0.591  0.0000  0.0000  0.0000
  704OM     OM1  704   3.341   4.532   0.115  0.0000  0.0000  0.0000
  705OM     OM1  705   3.408   4.530   0.377  0.0000  0.0000  0.0000
  706OM     OM1  706   3.527   4.377   0.197  0.0000  0.0000  0.0000
  707OM     OM1  707   3.281   4.336   0.282  0.0000  0.0000  0.0000
  708OM     OM1  708   8.140   8.958   1.189  0.0000  0.0000  0.0000
  709OM     OM1  709   8.211   8.927   0.936  0.0000  0.0000  0.0000
  710OM     OM1  710   8.210   9.157   1.047  0.0000  0.0000  0.0000
  711OM     OM1  711   7.984   9.037   0.993  0.0000  0.0000  0.0000
  712OM     OM1  712   9.007   3.405   0.479  0.0000  0.0000  0.0000
  713OM     OM1  713   8.979   3.365   0.222  0.0000  0.0000  0.0000
  714OM     OM1  714   9.051   3.172   0.382  0.0000  0.0000  0.0000
  715OM     OM1  715   8.824   3.086   0.442  0.0000  0.0000  0.0000
  716OM     OM1  716   3.537   0.346   0.952  0.0000  0.0000  0.0000
  717OM     OM1  717   3.706   0.503   1.048  0.0000  0.0000  0.0000
  718OM     OM1  718   3.602   0.744   1.055  0.0000  0.0000  0.0000
  719OM     OM1  719   3.662   0.669   8.498  0.0000  0.0000  0.0000
  720OM     OM1  720   3.460   0.552   8.373  0.0000  0.0000  0.0000
  721OM     OM1  721   3.707   0.475   8.332  0.0000  0.0000  0.0000
  722OM     OM1  722   0.197   8.078   1.242  0.0000  0.0000  0.0000
  723OM     OM1  723   9.556   8.479   1.076  0.0000  0.0000  0.0000
  724OM     OM1  724   0.053   8.258   1.145  0.0000  0.0000  0.0000
  725OM     OM1  725   3.345   6.708   0.746  0.0000  0.0000  0.0000
  726OM     OM1  726   3.540   6.856   0.690  0.0000  0.0000  0.0000
  727OM     OM1  727   3.455   6.852   0.938  0.0000  0.0000  0.0000
  728OM     OM1  728   3.293   6.955   0.762  0.0000  0.0000  0.0000
  729OM     OM1  729   2.681   3.603   8.633  0.0000  0.0000  0.0000
  730OM     OM1  730   2.557   3.390   8.735  0.0000  0.0000  0.0000
  731OM     OM1  731   2.527   3.630   8.832  0.0000  0.0000  0.0000
  732OM     OM1  732   2.743   3.505   8.881  0.0000  0.0000  0.0000
  733OM     OM1  733   2.155   5.967   8.920  0.0000  0.0000  0.0000
  734OM     OM1  734   1.938   5.975   9.063  0.0000  0.0000  0.0000
  735OM     OM1  735   2.039   5.747   8.976  0.0000  0.0000  0.0000
  736OM     OM1  736   2.147   5.884   9.177  0.0000  0.0000  0.0000
  737OM     OM1  737   4.058   3.643   9.502  0.0000  0.0000  0.0000
  738OM     OM1  738   4.273   3.502   9.525  0.0000  0.0000  0.0000
  739OM     OM1  739   4.294   3.758   9.555  0.0000  0.0000  0.0000
  740OM     OM1  740   4.172   3.607   0.129  0.0000  0.0000  0.0000
  741OM     OM1  741   9.274   8.884   8.474  0.0000  0.0000  0.0000
  742OM     OM1  742   9.306   9.145   8.465  0.0000  0.0000  0.0000
  743OM     OM1  743   9.444   9.005   8.639  0.0000  0.0000  0.0000
  744OM     OM1  744   9.499   9.003   8.385  0.0000  0.0000  0.0000
  745OM     OM1  745   5.153   1.032   0.473  0.0000  0.0000  0.0000
  746OM     OM1  746   5.375   0.975   0.615  0.0000  0.0000  0.0000
  747OM     OM1  747   5.212   0.788   0.527  0.0000  0.0000  0.0000
  748OM     OM1  748   5.137   0.938   0.722  0.0000  0.0000  0.0000
  749OM     OM1  749   3.285   9.297   0.617  0.0000  0.0000  0.0000
  750OM     OM1  750   3.534   9.211   0.608  0.0000  0.0000  0.0000
  751OM     OM1  751   3.488   9.394   0.782  0.0000  0.0000  0.0000
  752OM     OM1  752   3.372   9.166   0.816  0.0000  0.0000  0.0000
  753OM     OM1  753   7.113   8.039   9.348  0.0000  0.0000  0.0000
  754OM     OM1  754   6.866   8.071   9.429  0.0000  0.0000  0.0000
  755OM     OM1  755   7.061   8.103   9.589  0.0000  0.0000  0.0000
  756OM     OM1  756   7.016   8.286   9.390  0.0000  0.0000  0.0000
  757OM     OM1  757   8.978   5.168   9.131  0.0000  0.0000  0.0000
  758OM     OM1  758   8.957   5.224   8.882  0.0000  0.0000  0.0000
  759OM     OM1  759   8.746   5.226   9.021  0.0000  0.0000  0.0000
  760OM     OM1  760   8.932   5.413   9.063  0.0000  0.0000  0.0000
  761OM     OM1  761   3.460   5.500   9.380  0.0000  0.0000  0.0000
  762OM     OM1  762   3.274   5.336   9.440  0.0000  0.0000  0.0000
  763OM     OM1  763   3.444   5.283   9.243  0.0000  0.0000  0.0000
  764OM     OM1  764   3.535   5.275   9.485  0.0000  0.0000  0.0000
  765OM     OM1  765   1.706   7.766   9.603  0.0000  0.0000  0.0000
  766OM     OM1  766   1.598   7.842   9.373  0.0000  0.0000  0.0000
  767OM     OM1  767   1.467   7.701   9.552  0.0000  0.0000  0.0000
  768OM     OM1  768   1.505   7.950   9.590  0.0000  0.0000  0.0000
  769OM     OM1  769   0.147   4.452   8.688  0.0000  0.0000  0.0000
  770OM     OM1  770   0.122   4.570   8.916  0.0000  0.0000  0.0000
  771OM     OM1  771   9.517   4.484   8.814  0.0000  0.0000  0.0000
  772OM     OM1  772   0.080   4.296   8.879  0.0000  0.0000  0.0000
  773OM     OM1  773   1.079   3.158   8.573  0.0000  0.0000  0.0000
  774OM     OM1  774   1.105   2.933   8.444  0.0000  0.0000  0.0000
  775OM     OM1  775   0.958   3.121   8.344  0.0000  0.0000  0.0000
  776OM     OM1  776   4.509   5.015   9.493  0.0000  0.0000  0.0000
  777OM     OM1  777   4.339   4.812   9.483  0.0000  0.0000  0.0000
  778OM     OM1  778   4.086   4.788   9.432  0.0000  0.0000  0.0000
  779OM     OM1  779   1.760   1.211   1.254  0.0000  0.0000  0.0000
  780OM     OM1  780   1.635   1.250   1.033  0.0000  0.0000  0.0000
  781OM     OM1  781   1.889   1.279   1.042  0.0000  0.0000  0.0000
  782OM     OM1  782   1.790   1.035   1.057  0.0000  0.0000  0.0000
  783OM     OM1  783   3.609   9.426   8.375  0.0000  0.0000  0.0000
  784OM     OM1  784   3.432   9.571   8.496  0.0000  0.0000  0.0000
  785OM     OM1  785   3.382   9.310   8.442  0.0000  0.0000  0.0000
  786OM     OM1  786   8.430   8.241   0.061  0.0000  0.0000  0.0000
  787OM     OM1  787   8.224   8.363   9.573  0.0000  0.0000  0.0000
  788OM     OM1  788   8.452   8.377   9.451  0.0000  0.0000  0.0000
  789OM     OM1  789   8.320   8.152   9.441  0.0000  0.0000  0.0000
  790OM     OM1  790   9.430   4.850   8.538  0.0000  0.0000  0.0000
  791OM     OM1  791   9.415   4.605   8.478  0.0000  0.0000  0.0000
  792OM     OM1  792   9.226   4.765   8.392  0.0000  0.0000  0.0000
  793OM     OM1  793   6.554   3.861   1.222  0.0000  0.0000  0.0000
  794OM     OM1  794   9.373   5.122   0.973  0.0000  0.0000  0.0000
  795OM     OM1  795   9.429   4.871   0.943  0.0000  0.0000  0.0000
  796OM     OM1  796   9.467   4.991   1.180  0.0000  0.0000  0.0000
  797OM     OM1  797   6.412   5.113   1.071  0.0000  0.0000  0.0000
  798OM     OM1  798   6.190   5.010   1.171  0.0000  0.0000  0.0000
  799OM     OM1  799   6.424   4.911   1.230  0.0000  0.0000  0.0000
  800OM     OM1  800   3.304   5.721   1.220  0.0000  0.0000  0.0000
  801OM     OM1  801   3.087   5.703   1.363  0.0000  0.0000  0.0000
  802OM     OM1  802   4.358   2.745   0.628  0.0000  0.0000  0.0000
  803OM     OM1  803   4.149   2.746   0.780  0.0000  0.0000  0.0000
  804OM     OM1  804   4.378   2.842   0.872  0.0000  0.0000  0.0000
  805OM     OM1  805   4.248   2.975   0.705  0.0000  0.0000  0.0000
  806OM     OM1  806   1.102   3.513   0.184  0.0000  0.0000  0.0000
  807OM     OM1  807   1.294   3.420   0.057  0.0000  0.0000  0.0000
  808OM     OM1  808   1.136   3.594   9.545  0.0000  0.0000  0.0000
  809OM     OM1  809   1.275   3.710   0.200  0.0000  0.0000  0.0000
  810OM     OM1  810   6.938   0.796   9.426  0.0000  0.0000  0.0000
  811OM     OM1  811   6.746   0.609   9.414  0.0000  0.0000  0.0000
  812OM     OM1  812   6.948   0.565   9.568  0.0000  0.0000  0.0000
  813OM     OM1  813   6.792   0.746   0.025  0.0000  0.0000  0.0000
  814OM     OM1  814   8.440   4.017   1.190  0.0000  0.0000  0.0000
  815OM     OM1  815   8.510   4.252   1.167  0.0000  0.0000  0.0000
  816OM     OM1  816   8.427   4.124   0.950  0.0000  0.0000  0.0000
  817OM     OM1  817   8.254   4.199   1.132  0.0000  0.0000  0.0000
  818OM     OM1  818   4.484   0.881   0.373  0.0000  0.0000  0.0000
  819OM     OM1  819   4.562   0.798   0.612  0.0000  0.0000  0.0000
  820OM     OM1  820   4.348   0.684   0.518  0.0000  0.0000  0.0000
  821OM     OM1  821   4.578   0.644   0.406  0.0000  0.0000  0.0000
  822OM     OM1  822   8.852   1.018   9.363  0.0000  0.0000  0.0000
  823OM     OM1  823   9.031   1.158   9.524  0.0000  0.0000  0.0000
  824OM     OM1  824   9.042   0.901   9.483  0.0000  0.0000  0.0000
  825OM     OM1  825   9.440   1.915   0.831  0.0000  0.0000  0.0000
  826OM     OM1  826   0.094   1.850   0.808  0.0000  0.0000  0.0000
  827OM     OM1  827   9.290   1.977   1.033  0.0000  0.0000  0.0000
  828OM     OM1  828   9.366   1.738   0.998  0.0000  0.0000  0.0000
  829OM     OM1  829   7.114   1.940   0.064  0.0000  0.0000  0.0000
  830OM     OM1  830   6.993   1.832   9.451  0.0000  0.0000  0.0000
  831OM     OM1  831   7.179   1.712   9.567  0.0000  0.0000  0.0000
  832OM     OM1  832   6.939   1.741   0.079  0.0000  0.0000  0.0000
  833OM     OM1  833   0.960   8.333   8.763  0.0000  0.0000  0.0000
  834OM     OM1  834   1.044   8.160   8.935  0.0000  0.0000  0.0000
  835OM     OM1  835   1.185   8.381   8.885  0.0000  0.0000  0.0000
  836OM     OM1  836   0.951   8.384   9.018  0.0000  0.0000  0.0000
  837OM     OM1  837   1.097   1.499   1.280  0.0000  0.0000  0.0000
  838OM     OM1  838   1.042   1.744   1.242  0.0000  0.0000  0.0000
  839OM     OM1  839   0.904   1.552   1.108  0.0000  0.0000  0.0000
  840OM     OM1  840   3.158   9.262   1.394  0.0000  0.0000  0.0000
  841OM     OM1  841   6.310   0.610   0.045  0.0000  0.0000  0.0000
  842OM     OM1  842   6.362   0.807   0.225  0.0000  0.0000  0.0000
  843OM     OM1  843   6.550   0.701   0.102  0.0000  0.0000  0.0000
  844OM     OM1  844   6.412   0.555   0.278  0.0000  0.0000  0.0000
  845OM     OM1  845   2.488   8.534   8.261  0.0000  0.0000  0.0000
  846OM     OM1  846   1.895   0.401   9.095  0.0000  0.0000  0.0000
  847OM     OM1  847   1.737   0.232   8.976  0.0000  0.0000  0.0000
  848OM     OM1  848   1.643   0.398   9.148  0.0000  0.0000  0.0000
  849OM     OM1  849   3.588   3.791   0.246  0.0000  0.0000  0.0000
  850OM     OM1  850   3.540   3.558   9.506  0.0000  0.0000  0.0000
  851OM     OM1  851   3.581   3.874   9.599  0.0000  0.0000  0.0000
  852OM     OM1  852   7.212   4.606   8.628  0.0000  0.0000  0.0000
  853OM     OM1  853   7.290   4.434   8.450  0.0000  0.0000  0.0000
  854OM     OM1  854   7.447   4.640   8.538  0.0000  0.0000  0.0000
  855OM     OM1  855   7.413   4.436   8.681  0.0000  0.0000  0.0000
  856OM     OM1  856   6.934   8.927   0.805  0.0000  0.0000  0.0000
  857OM     OM1  857   6.967   9.043   1.044  0.0000  0.0000  0.0000
  858OM     OM1  858   7.158   9.036   0.874  0.0000  0.0000  0.0000
  859OM     OM1  859   6.948   9.184   0.826  0.0000  0.0000  0.0000
  860OM     OM1  860   6.139   6.658   0.031  0.0000  0.0000  0.0000
  861OM     OM1  861   5.886   6.665   0.056  0.0000  0.0000  0.0000
  862OM     OM1  862   6.006   6.868   9.562  0.0000  0.0000  0.0000
  863OM     OM1  863   5.988   6.638   9.423  0.0000  0.0000  0.0000
  864OM     OM1  864   1.233   3.253   1.180  0.0000  0.0000  0.0000
  865OM     OM1  865   1.111   3.087   1.022  0.0000  0.0000  0.0000
  866OM     OM1  866   1.318   3.069   0.868  0.0000  0.0000  0.0000
  867OM     OM1  867   1.275   3.011   1.209  0.0000  0.0000  0.0000
  868OM     OM1  868   9.597   8.726   1.154  0.0000  0.0000  0.0000
  869OM     OM1  869   0.177   8.554   1.172  0.0000  0.0000  0.0000
  870OM     OM1  870   0.103   8.630   0.931  0.0000  0.0000  0.0000
  871OM     OM1  871   7.273   9.247   0.772  0.0000  0.0000  0.0000
  872OM     OM1  872   7.182   9.505   0.785  0.0000  0.0000  0.0000
  873OM     OM1  873   7.436   9.445   0.743  0.0000  0.0000  0.0000
  874OM     OM1  874   7.243   9.397   0.569  0.0000  0.0000  0.0000
  875OM     OM1  875   4.853   8.540   0.236  0.0000  0.0000  0.0000
  876OM     OM1  876   4.655   8.687   0.146  0.0000  0.0000  0.0000
  877OM     OM1  877   4.602   8.461   0.257  0.0000  0.0000  0.0000
  878OM     OM1  878   4.705   8.644   0.410  0.0000  0.0000  0.0000
  879OM     OM1  879   2.378   0.905   0.140  0.0000  0.0000  0.0000
  880OM     OM1  880   2.184   0.891   0.323  0.0000  0.0000  0.0000
  881OM     OM1  881   2.415   0.794   0.379  0.0000  0.0000  0.0000
  882OM     OM1  882   2.264   0.681   0.190  0.0000  0.0000  0.0000
  883OM     OM1  883   2.137   8.702   8.837  0.0000  0.0000  0.0000
  884OM     OM1  884   2.024   8.929   8.914  0.0000  0.0000  0.0000
  885OM     OM1  885   2.165   8.896   8.688  0.0000  0.0000  0.0000
  886OM     OM1  886   2.277   8.908   8.937  0.0000  0.0000  0.0000
  887OM     OM1  887   7.054   8.030   1.211  0.0000  0.0000  0.0000
  888OM     OM1  888   6.938   7.840   1.075  0.0000  0.0000  0.0000
  889OM     OM1  889   6.812   8.004   1.261  0.0000  0.0000  0.0000
  890OM     OM1  890   5.991   2.802   0.154  0.0000  0.0000  0.0000
  891OM     OM1  891   6.039   2.689   9.529  0.0000  0.0000  0.0000
  892OM     OM1  892   6.205   2.646   0.111  0.0000  0.0000  0.0000
  893OM     OM1  893   5.975   2.540   0.137  0.0000  0.0000  0.0000
  894OM     OM1  894   5.466   5.718   8.663  0.0000  0.0000  0.0000
  895OM     OM1  895   5.308   5.503   8.400  0.0000  0.0000  0.0000
  896OM     OM1  896   5.597   5.926   8.588  0.0000  0.0000  0.0000
  897OM     OM1  897   5.508   5.354   8.498  0.0000  0.0000  0.0000
  898OM     OM1  898   2.601   8.231   9.201  0.0000  0.0000  0.0000
  899OM     OM1  899   2.427   8.179   8.996  0.0000  0.0000  0.0000
  900OM     OM1  900   2.592   8.000   9.073  0.0000  0.0000  0.0000
  901OM     OM1  901   2.394   8.080   9.226  0.0000  0.0000  0.0000
  902OM     OM1  902   0.068   8.769   8.836  0.0000  0.0000  0.0000
  903OM     OM1  903   0.175   8.739   8.611  0.0000  0.0000  0.0000
  904OM     OM1  904   0.325   8.813   8.811  0.0000  0.0000  0.0000
  905OM     OM1  905   0.238   8.572   8.823  0.0000  0.0000  0.0000
  906OM     OM1  906   0.373   7.606   8.636  0.0000  0.0000  0.0000
  907OM     OM1  907   0.661   7.906   8.909  0.0000  0.0000  0.0000
  908OM     OM1  908   0.773   7.839   8.689  0.0000  0.0000  0.0000
  909OM     OM1  909   0.519   7.804   8.690  0.0000  0.0000  0.0000
  910OM     OM1  910   6.602   6.587   0.553  0.0000  0.0000  0.0000
  911OM     OM1  911   6.728   6.801   0.608  0.0000  0.0000  0.0000
  912OM     OM1  912   6.663   6.762   0.368  0.0000  0.0000  0.0000
  913OM     OM1  913   6.470   6.808   0.562  0.0000  0.0000  0.0000
  914OM     OM1  914   7.436   3.376   8.632  0.0000  0.0000  0.0000
  915OM     OM1  915   7.491   3.471   8.871  0.0000  0.0000  0.0000
  916OM     OM1  916   7.554   3.595   8.665  0.0000  0.0000  0.0000
  917OM     OM1  917   7.284   3.560   8.718  0.0000  0.0000  0.0000
  918OM     OM1  918   4.804   7.775   9.095  0.0000  0.0000  0.0000
  919OM     OM1  919   4.910   7.965   9.229  0.0000  0.0000  0.0000
  920OM     OM1  920   4.827   7.762   9.365  0.0000  0.0000  0.0000
  921OM     OM1  921   2.696   0.114   9.374  0.0000  0.0000  0.0000
  922OM     OM1  922   2.778   0.254   9.185  0.0000  0.0000  0.0000
  923OM     OM1  923   2.848   9.595   9.193  0.0000  0.0000  0.0000
  924OM     OM1  924   2.612   0.065   9.130  0.0000  0.0000  0.0000
  925OM     OM1  925   2.342   5.785   0.497  0.0000  0.0000  0.0000
  926OM     OM1  926   2.391   5.878   0.743  0.0000  0.0000  0.0000
  927OM     OM1  927   2.553   5.941   0.545  0.0000  0.0000  0.0000
  928OM     OM1  928   2.302   6.031   0.559  0.0000  0.0000  0.0000
  929OM     OM1  929   6.182   1.761   0.136  0.0000  0.0000  0.0000
  930OM     OM1  930   6.313   1.563   0.021  0.0000  0.0000  0.0000
  931OM     OM1  931   6.255   1.540   0.263  0.0000  0.0000  0.0000
  932OM     OM1  932   6.054   1.536   0.091  0.0000  0.0000  0.0000
  933OM     OM1  933   2.263   7.977   8.982  0.0000  0.0000  0.0000
  934OM     OM1  934   2.018   7.925   9.034  0.0000  0.0000  0.0000
  935OM     OM1  935   2.136   7.822   8.815  0.0000  0.0000  0.0000
  936OM     OM1  936   2.192   7.731   9.055  0.0000  0.0000  0.0000
  937OM     OM1  937   3.218   1.159   1.158  0.0000  0.0000  0.0000
  938OM     OM1  938   3.252   1.419   1.191  0.0000  0.0000  0.0000
  939OM     OM1  939   3.421   1.294   1.041  0.0000  0.0000  0.0000
  940OM     OM1  940   3.409   1.256   1.302  0.0000  0.0000  0.0000
  941OM     OM1  941   6.171   6.344   8.664  0.0000  0.0000  0.0000
  942OM     OM1  942   6.183   6.103   8.723  0.0000  0.0000  0.0000
  943OM     OM1  943   6.187   6.178   8.462  0.0000  0.0000  0.0000
  944OM     OM1  944   6.398   6.193   8.618  0.0000  0.0000  0.0000
  945OM     OM1  945   0.264   6.276   0.654  0.0000  0.0000  0.0000
  946OM     OM1  946   0.153   6.253   0.408  0.0000  0.0000  0.0000
  947OM     OM1  947   0.087   6.441   0.578  0.0000  0.0000  0.0000
  948OM     OM1  948   0.020   6.201   0.634  0.0000  0.0000  0.0000
  949OM     OM1  949   4.779   6.897   8.563  0.0000  0.0000  0.0000
  950OM     OM1  950   4.973   6.664   8.895  0.0000  0.0000  0.0000
  951OM     OM1  951   4.953   6.899   8.763  0.0000  0.0000  0.0000
  952OM     OM1  952   5.032   6.693   8.642  0.0000  0.0000  0.0000
  953OM     OM1  953   8.020   3.565   8.523  0.0000  0.0000  0.0000
  954OM     OM1  954   8.073   3.687   8.753  0.0000  0.0000  0.0000
  955OM     OM1  955   7.943   3.458   8.740  0.0000  0.0000  0.0000
  956OM     OM1  956   7.819   3.666   8.667  0.0000  0.0000  0.0000
  957OM     OM1  957   7.507   5.876   9.027  0.0000  0.0000  0.0000
  958OM     OM1  958   7.473   5.886   9.281  0.0000  0.0000  0.0000
  959OM     OM1  959   7.705   5.769   8.897  0.0000  0.0000  0.0000
  960OM     OM1  960   7.727   5.922   9.230  0.0000  0.0000  0.0000
  961OM     OM1  961   2.332   5.654   0.263  0.0000  0.0000  0.0000
  962OM     OM1  962   2.110   5.728   0.382  0.0000  0.0000  0.0000
  963OM     OM1  963   2.268   5.539   0.483  0.0000  0.0000  0.0000
  964OM     OM1  964   6.584   5.445   1.290  0.0000  0.0000  0.0000
  965OM     OM1  965   6.402   5.619   1.268  0.0000  0.0000  0.0000
  966OM     OM1  966   7.360   9.000   0.725  0.0000  0.0000  0.0000
  967OM     OM1  967   7.567   8.845   0.752  0.0000  0.0000  0.0000
  968OM     OM1  968   7.497   8.934   0.521  0.0000  0.0000  0.0000
  969OM     OM1  969   7.360   8.744   0.644  0.0000  0.0000  0.0000
  970OM     OM1  970   9.140   7.089   9.164  0.0000  0.0000  0.0000
  971OM     OM1  971   9.115   7.187   9.394  0.0000  0.0000  0.0000
  972OM     OM1  972   8.950   7.260   9.208  0.0000  0.0000  0.0000
  973OM     OM1  973   8.931   7.017   9.296  0.0000  0.0000  0.0000
  974OM     OM1  974   1.669   2.761   0.808  0.0000  0.0000  0.0000
  975OM     OM1  975   1.844   2.703   1.018  0.0000  0.0000  0.0000
  976OM     OM1  976   1.584   2.684   1.041  0.0000  0.0000  0.0000
  977OM     OM1  977   1.704   2.917   1.013  0.0000  0.0000  0.0000
  978OM     OM1  978   0.131   5.388   1.236  0.0000  0.0000  0.0000
  979OM     OM1  979   0.040   5.562   1.072  0.0000  0.0000  0.0000
  980OM     OM1  980   0.122   5.652   1.298  0.0000  0.0000  0.0000
  981OM     OM1  981   2.359   7.720   0.270  0.0000  0.0000  0.0000
  982OM     OM1  982   2.527   7.752   0.464  0.0000  0.0000  0.0000
  983OM     OM1  983   2.407   7.490   0.148  0.0000  0.0000  0.0000
  984OM     OM1  984   2.415   7.707   0.016  0.0000  0.0000  0.0000
  985OM     OM1  985   1.876   2.187   8.383  0.0000  0.0000  0.0000
  986OM     OM1  986   1.032   3.065   1.262  0.0000  0.0000  0.0000
  987OM     OM1  987   1.099   2.967   0.785  0.0000  0.0000  0.0000
  988OM     OM1  988   1.227   2.854   0.972  0.0000  0.0000  0.0000
  989OM     OM1  989   8.631   5.360   8.739  0.0000  0.0000  0.0000
  990OM     OM1  990   8.577   5.183   8.560  0.0000  0.0000  0.0000
  991OM     OM1  991   8.794   5.331   8.530  0.0000  0.0000  0.0000
  992OM     OM1  992   8.789   5.148   8.703  0.0000  0.0000  0.0000
  993OM     OM1  993   4.156   6.959   8.724  0.0000  0.0000  0.0000
  994OM     OM1  994   3.973   7.153   8.672  0.0000  0.0000  0.0000
  995OM     OM1  995   4.223   7.204   8.663  0.0000  0.0000  0.0000
  996OM     OM1  996   3.851   7.593   8.920  0.0000  0.0000  0.0000
  997OM     OM1  997   3.696   7.697   9.108  0.0000  0.0000  0.0000
  998OM     OM1  998   3.923   7.583   9.158  0.0000  0.0000  0.0000
  999OM     OM1  999   3.718   7.434   9.095  0.0000  0.0000  0.0000
 1000OM     OM1 1000   7.167   6.323   9.350  0.0000  0.0000  0.0000
 1001OM     OM1 1001   7.413   6.229   9.353  0.0000  0.0000  0.0000
 1002OM     OM1 1002   7.291   6.236   9.578  0.0000  0.0000  0.0000
 1003OM     OM1 1003   7.364   6.457   9.449  0.0000  0.0000  0.0000
 1004OM     OM1 1004   5.359   8.414   0.203  0.0000  0.0000  0.0000
 1005OM     OM1 1005   5.125   8.513   0.276  0.0000  0.0000  0.0000
 1006OM     OM1 1006   5.348   8.508   0.433  0.0000  0.0000  0.0000
 1007OM     OM1 1007   5.327   8.670   0.224  0.0000  0.0000  0.0000
 1008OM     OM1 1008   3.501   1.900   0.391  0.0000  0.0000  0.0000
 1009OM     OM1 1009   3.248   1.873   0.500  0.0000  0.0000  0.0000
 1010OM     OM1 1010   3.447   2.259   0.398  0.0000  0.0000  0.0000
 1011OM     OM1 1011   3.303   2.051   0.325  0.0000  0.0000  0.0000
 1012OM     OM1 1012   1.883   5.821   0.485  0.0000  0.0000  0.0000
 1013OM     OM1 1013   1.803   6.076   0.444  0.0000  0.0000  0.0000
 1014OM     OM1 1014   2.043   6.015   0.513  0.0000  0.0000  0.0000
 1015OM     OM1 1015   1.847   5.990   0.686  0.0000  0.0000  0.0000
 1016OM     OM1 1016   1.073   4.305   0.856  0.0000  0.0000  0.0000
 1017OM     OM1 1017   1.044   4.382   1.105  0.0000  0.0000  0.0000
 1018OM     OM1 1018   1.284   4.380   1.005  0.0000  0.0000  0.0000
 1019OM     OM1 1019   1.097   4.550   0.916  0.0000  0.0000  0.0000
 1020OM     OM1 1020   7.901   3.579   8.301  0.0000  0.0000  0.0000
 1021OM     OM1 1021   8.008   3.345   8.364  0.0000  0.0000  0.0000
 1022OM     OM1 1022   8.165   3.531   8.302  0.0000  0.0000  0.0000
 1023OM     OM1 1023   5.942   8.854   0.091  0.0000  0.0000  0.0000
 1024OM     OM1 1024   6.153   8.829   0.256  0.0000  0.0000  0.0000
 1025OM     OM1 1025   5.905   8.781   0.343  0.0000  0.0000  0.0000
 1026OM     OM1 1026   5.987   9.016   0.287  0.0000  0.0000  0.0000
 1027OM     OM1 1027   6.550   6.540   1.227  0.0000  0.0000  0.0000
 1028OM     OM1 1028   6.674   6.743   1.102  0.0000  0.0000  0.0000
 1029OM     OM1 1029   6.411   6.682   1.072  0.0000  0.0000  0.0000
 1030OM     OM1 1030   0.574   8.858   8.890  0.0000  0.0000  0.0000
 1031OM     OM1 1031   0.782   8.802   9.035  0.0000  0.0000  0.0000
 1032OM     OM1 1032   0.768   8.697   8.795  0.0000  0.0000  0.0000
 1033OM     OM1 1033   0.807   8.947   8.816  0.0000  0.0000  0.0000
 1034OM     OM1 1034   0.228   4.592   1.379  0.0000  0.0000  0.0000
 1035OM     OM1 1035   0.413   4.737   1.270  0.0000  0.0000  0.0000
 1036OM     OM1 1036   4.548   6.405   1.195  0.0000  0.0000  0.0000
 1037OM     OM1 1037   4.799   6.404   1.141  0.0000  0.0000  0.0000
 1038OM     OM1 1038   4.687   6.636   1.150  0.0000  0.0000  0.0000
 1039OM     OM1 1039   4.637   6.467   0.955  0.0000  0.0000  0.0000
 1040OM     OM1 1040   0.355   8.724   1.260  0.0000  0.0000  0.0000
 1041OM     OM1 1041   0.416   8.562   1.075  0.0000  0.0000  0.0000
 1042OM     OM1 1042   0.394   8.478   1.321  0.0000  0.0000  0.0000
 1043OM     OM1 1043   0.615   8.351   1.281  0.0000  0.0000  0.0000
 1044OM     OM1 1044   0.618   8.599   1.379  0.0000  0.0000  0.0000
 1045OM     OM1 1045   3.328   4.235   9.367  0.0000  0.0000  0.0000
 1046OM     OM1 1046   3.281   4.013   9.520  0.0000  0.0000  0.0000
 1047OM     OM1 1047   3.320   4.000   9.259  0.0000  0.0000  0.0000
 1048OM     OM1 1048   3.512   4.054   9.426  0.0000  0.0000  0.0000
 1049OM     OM1 1049   4.235   8.970   9.249  0.0000  0.0000  0.0000
 1050OM     OM1 1050   4.128   9.103   9.450  0.0000  0.0000  0.0000
 1051OM     OM1 1051   4.138   9.195   9.199  0.0000  0.0000  0.0000
 1052OM     OM1 1052   0.689   6.868   9.394  0.0000  0.0000  0.0000
 1053OM     OM1 1053   0.487   6.973   9.277  0.0000  0.0000  0.0000
 1054OM     OM1 1054   0.455   6.817   9.492  0.0000  0.0000  0.0000
 1055OM     OM1 1055   0.513   6.708   9.267  0.0000  0.0000  0.0000
 1056OM     OM1 1056   6.764   2.044   0.779  0.0000  0.0000  0.0000
 1057OM     OM1 1057   6.827   1.837   0.630  0.0000  0.0000  0.0000
 1058OM     OM1 1058   6.832   2.086   0.538  0.0000  0.0000  0.0000
 1059OM     OM1 1059   7.013   2.009   0.713  0.0000  0.0000  0.0000
 1060OM     OM1 1060   6.832   8.690   0.746  0.0000  0.0000  0.0000
 1061OM     OM1 1061   6.999   8.791   0.580  0.0000  0.0000  0.0000
 1062OM     OM1 1062   6.946   8.471   0.686  0.0000  0.0000  0.0000
 1063OM     OM1 1063   5.000   7.523   8.928  0.0000  0.0000  0.0000
 1064OM     OM1 1064   5.002   7.752   8.822  0.0000  0.0000  0.0000
 1065OM     OM1 1065   5.205   7.585   8.773  0.0000  0.0000  0.0000
 1066OM     OM1 1066   9.129   6.738   0.702  0.0000  0.0000  0.0000
 1067OM     OM1 1067   9.218   6.530   0.789  0.0000  0.0000  0.0000
 1068OM     OM1 1068   8.963   6.587   0.850  0.0000  0.0000  0.0000
 1069OM     OM1 1069   9.152   6.714   0.967  0.0000  0.0000  0.0000
 1070OM     OM1 1070   9.044   7.664   0.593  0.0000  0.0000  0.0000
 1071OM     OM1 1071   8.907   7.862   0.472  0.0000  0.0000  0.0000
 1072OM     OM1 1072   8.935   7.848   0.731  0.0000  0.0000  0.0000
 1073OM     OM1 1073   4.521   6.145   1.140  0.0000  0.0000  0.0000
 1074OM     OM1 1074   4.369   6.033   0.947  0.0000  0.0000  0.0000
 1075OM     OM1 1075   4.322   5.993   1.193  0.0000  0.0000  0.0000
 1076OM     OM1 1076   4.527   5.881   1.082  0.0000  0.0000  0.0000
 1077OM     OM1 1077   5.615   7.386   1.033  0.0000  0.0000  0.0000
 1078OM     OM1 1078   5.618   7.511   0.803  0.0000  0.0000  0.0000
 1079OM     OM1 1079   5.387   7.459   0.923  0.0000  0.0000  0.0000
 1080OM     OM1 1080   5.536   7.278   0.807  0.0000  0.0000  0.0000
 1081OM     OM1 1081   1.802   6.949   8.581  0.0000  0.0000  0.0000
 1082OM     OM1 1082   1.840   7.205   8.564  0.0000  0.0000  0.0000
 1083OM     OM1 1083   2.020   7.058   8.462  0.0000  0.0000  0.0000
 1084OM     OM1 1084   1.991   7.058   8.718  0.0000  0.0000  0.0000
 1085OM     OM1 1085   0.943   7.304   8.975  0.0000  0.0000  0.0000
 1086OM     OM1 1086   1.007   7.089   9.116  0.0000  0.0000  0.0000
 1087OM     OM1 1087   0.764   7.197   9.123  0.0000  0.0000  0.0000
 1088OM     OM1 1088   0.963   7.308   9.245  0.0000  0.0000  0.0000
 1089OM     OM1 1089   0.763   5.111   9.494  0.0000  0.0000  0.0000
 1090OM     OM1 1090   0.808   5.092   0.140  0.0000  0.0000  0.0000
 1091OM     OM1 1091   1.022   5.123   9.593  0.0000  0.0000  0.0000
 1092OM     OM1 1092   0.873   5.317   0.024  0.0000  0.0000  0.0000
 1093OM     OM1 1093   8.102   9.451   9.274  0.0000  0.0000  0.0000
 1094OM     OM1 1094   8.095   0.090   9.371  0.0000  0.0000  0.0000
 1095OM     OM1 1095   8.303   0.015   9.251  0.0000  0.0000  0.0000
 1096OM     OM1 1096   8.460   0.512   8.928  0.0000  0.0000  0.0000
 1097OM     OM1 1097   8.319   0.313   8.838  0.0000  0.0000  0.0000
 1098OM     OM1 1098   8.480   0.278   9.044  0.0000  0.0000  0.0000
 1099OM     OM1 1099   8.255   0.413   9.063  0.0000  0.0000  0.0000
 1100OM     OM1 1100   3.381   8.537   9.344  0.0000  0.0000  0.0000
 1101OM     OM1 1101   3.583   8.650   9.464  0.0000  0.0000  0.0000
 1102OM     OM1 1102   3.390   8.518   9.597  0.0000  0.0000  0.0000
 1103OM     OM1 1103   3.563   8.386   9.447  0.0000  0.0000  0.0000
 1104OM     OM1 1104   0.748   3.336   0.373  0.0000  0.0000  0.0000
 1105OM     OM1 1105   0.799   3.158   0.179  0.0000  0.0000  0.0000
 1106OM     OM1 1106   0.786   3.085   0.428  0.0000  0.0000  0.0000
 1107OM     OM1 1107   4.600   7.692   8.940  0.0000  0.0000  0.0000
 1108OM     OM1 1108   4.667   7.945   8.936  0.0000  0.0000  0.0000
 1109OM     OM1 1109   4.569   7.846   9.148  0.0000  0.0000  0.0000
 1110OM     OM1 1110   5.637   3.567   8.190  0.0000  0.0000  0.0000
 1111OM     OM1 1111   5.441   3.501   8.343  0.0000  0.0000  0.0000
 1112OM     OM1 1112   5.490   3.761   8.288  0.0000  0.0000  0.0000
 1113OM     OM1 1113   8.892   0.032   0.661  0.0000  0.0000  0.0000
 1114OM     OM1 1114   8.998   0.224   0.799  0.0000  0.0000  0.0000
 1115OM     OM1 1115   8.940   0.013   0.411  0.0000  0.0000  0.0000
 1116OM     OM1 1116   8.690   0.038   0.489  0.0000  0.0000  0.0000
 1117OM     OM1 1117   0.215   1.053   1.063  0.0000  0.0000  0.0000
 1118OM     OM1 1118   0.339   1.148   1.268  0.0000  0.0000  0.0000
 1119OM     OM1 1119   0.350   0.889   1.233  0.0000  0.0000  0.0000
 1120OM     OM1 1120   0.121   0.987   1.290  0.0000  0.0000  0.0000
 1121OM     OM1 1121   8.419   0.100   8.557  0.0000  0.0000  0.0000
 1122OM     OM1 1122   8.452   0.360   8.509  0.0000  0.0000  0.0000
 1123OM     OM1 1123   8.598   0.165   8.392  0.0000  0.0000  0.0000
 1124OM     OM1 1124   8.629   0.228   8.650  0.0000  0.0000  0.0000
 1125OM     OM1 1125   3.736   2.039   0.362  0.0000  0.0000  0.0000
 1126OM     OM1 1126   3.707   1.819   0.244  0.0000  0.0000  0.0000
 1127OM     OM1 1127   3.726   1.821   0.503  0.0000  0.0000  0.0000
 1128OM     OM1 1128   8.930   4.967   8.839  0.0000  0.0000  0.0000
 1129OM     OM1 1129   9.041   5.116   8.658  0.0000  0.0000  0.0000
 1130OM     OM1 1130   4.734   6.568   9.557  0.0000  0.0000  0.0000
 1131OM     OM1 1131   4.891   6.222   9.390  0.0000  0.0000  0.0000
 1132OM     OM1 1132   4.730   6.354   0.100  0.0000  0.0000  0.0000
 1133OM     OM1 1133   3.080   3.395   9.529  0.0000  0.0000  0.0000
 1134OM     OM1 1134   2.845   3.507   9.580  0.0000  0.0000  0.0000
 1135OM     OM1 1135   2.855   3.276   9.463  0.0000  0.0000  0.0000
 1136OM     OM1 1136   2.930   3.493   9.337  0.0000  0.0000  0.0000
 1137OM     OM1 1137   3.480   7.576   8.424  0.0000  0.0000  0.0000
 1138OM     OM1 1138   7.526   0.515   9.536  0.0000  0.0000  0.0000
 1139OM     OM1 1139   7.286   0.507   9.599  0.0000  0.0000  0.0000
 1140OM     OM1 1140   7.357   0.648   9.386  0.0000  0.0000  0.0000
 1141OM     OM1 1141   7.393   0.743   0.011  0.0000  0.0000  0.0000
 1142OM     OM1 1142   7.546   4.713   0.247  0.0000  0.0000  0.0000
 1143OM     OM1 1143   7.681   4.863   0.062  0.0000  0.0000  0.0000
 1144OM     OM1 1144   7.517   4.678   9.600  0.0000  0.0000  0.0000
 1145OM     OM1 1145   7.751   4.620   0.119  0.0000  0.0000  0.0000
 1146OM     OM1 1146   3.890   5.556   8.575  0.0000  0.0000  0.0000
 1147OM     OM1 1147   4.089   5.663   8.698  0.0000  0.0000  0.0000
 1148OM     OM1 1148   4.117   5.642   8.446  0.0000  0.0000  0.0000
 1149OM     OM1 1149   3.932   5.809   8.532  0.0000  0.0000  0.0000
 1150OM     OM1 1150   2.493   3.228   0.068  0.0000  0.0000  0.0000
 1151OM     OM1 1151   2.653   3.066   0.199  0.0000  0.0000  0.0000
 1152OM     OM1 1152   2.594   3.454   0.004  0.0000  0.0000  0.0000
 1153OM     OM1 1153   5.228   4.923   0.922  0.0000  0.0000  0.0000
 1154OM     OM1 1154   5.030   5.077   1.003  0.0000  0.0000  0.0000
 1155OM     OM1 1155   5.273   5.171   1.018  0.0000  0.0000  0.0000
 1156OM     OM1 1156   5.172   5.131   0.782  0.0000  0.0000  0.0000
 1157OM     OM1 1157   5.956   6.497   8.640  0.0000  0.0000  0.0000
 1158OM     OM1 1158   5.985   6.380   8.866  0.0000  0.0000  0.0000
 1159OM     OM1 1159   6.149   6.563   8.802  0.0000  0.0000  0.0000
 1160OM     OM1 1160   6.655   8.868   9.287  0.0000  0.0000  0.0000
 1161OM     OM1 1161   6.997   8.526   9.240  0.0000  0.0000  0.0000
 1162OM     OM1 1162   6.887   8.771   9.253  0.0000  0.0000  0.0000
 1163OM     OM1 1163   6.847   8.913   9.463  0.0000  0.0000  0.0000
 1164OM     OM1 1164   5.741   4.556   0.279  0.0000  0.0000  0.0000
 1165OM     OM1 1165   5.949   4.625   0.126  0.0000  0.0000  0.0000
 1166OM     OM1 1166   5.716   4.750   0.111  0.0000  0.0000  0.0000
 1167OM     OM1 1167   5.735   4.496   0.036  0.0000  0.0000  0.0000
 1168OM     OM1 1168   0.701   0.290   1.125  0.0000  0.0000  0.0000
 1169OM     OM1 1169   0.858   0.426   0.958  0.0000  0.0000  0.0000
 1170OM     OM1 1170   0.746   0.542   1.162  0.0000  0.0000  0.0000
 1171OM     OM1 1171   0.947   0.351   1.185  0.0000  0.0000  0.0000
 1172OM     OM1 1172   0.630   4.952   9.008  0.0000  0.0000  0.0000
 1173OM     OM1 1173   0.824   5.112   9.065  0.0000  0.0000  0.0000
 1174OM     OM1 1174   0.587   5.202   9.068  0.0000  0.0000  0.0000
 1175OM     OM1 1175   0.655   5.038   9.263  0.0000  0.0000  0.0000
 1176OM     OM1 1176   0.709   4.161   9.425  0.0000  0.0000  0.0000
 1177OM     OM1 1177   0.795   3.917   9.446  0.0000  0.0000  0.0000
 1178OM     OM1 1178   0.859   4.098   0.026  0.0000  0.0000  0.0000
 1179OM     OM1 1179   7.237   1.138   8.372  0.0000  0.0000  0.0000
 1180OM     OM1 1180   7.282   1.226   8.128  0.0000  0.0000  0.0000
 1181OM     OM1 1181   1.927   7.135   0.190  0.0000  0.0000  0.0000
 1182OM     OM1 1182   2.098   7.119   0.394  0.0000  0.0000  0.0000
 1183OM     OM1 1183   1.893   6.946   0.366  0.0000  0.0000  0.0000
 1184OM     OM1 1184   2.097   6.931   0.222  0.0000  0.0000  0.0000
 1185OM     OM1 1185   8.815   8.394   0.735  0.0000  0.0000  0.0000
 1186OM     OM1 1186   8.974   8.600   0.734  0.0000  0.0000  0.0000
 1187OM     OM1 1187   8.958   8.444   0.527  0.0000  0.0000  0.0000
 1188OM     OM1 1188   9.073   8.361   0.745  0.0000  0.0000  0.0000
 1189OM     OM1 1189   8.367   6.965   9.374  0.0000  0.0000  0.0000
 1190OM     OM1 1190   8.325   6.802   9.585  0.0000  0.0000  0.0000
 1191OM     OM1 1191   8.483   6.743   9.380  0.0000  0.0000  0.0000
 1192OM     OM1 1192   8.241   7.030   9.165  0.0000  0.0000  0.0000
 1193OM     OM1 1193   2.675   0.305   8.959  0.0000  0.0000  0.0000
 1194OM     OM1 1194   2.475   0.311   8.806  0.0000  0.0000  0.0000
 1195OM     OM1 1195   2.643   0.104   8.794  0.0000  0.0000  0.0000
 1196OM     OM1 1196   2.712   0.331   8.699  0.0000  0.0000  0.0000
 1197OM     OM1 1197   7.556   5.059   9.559  0.0000  0.0000  0.0000
 1198OM     OM1 1198   7.796   5.106   0.047  0.0000  0.0000  0.0000
 1199OM     OM1 1199   0.653   9.540   0.533  0.0000  0.0000  0.0000
 1200OM     OM1 1200   0.724   9.078   0.631  0.0000  0.0000  0.0000
 1201OM     OM1 1201   0.807   9.334   0.556  0.0000  0.0000  0.0000
 1202OM     OM1 1202   0.600   9.299   0.685  0.0000  0.0000  0.0000
 1203OM     OM1 1203   7.274   5.950   9.107  0.0000  0.0000  0.0000
 1204OM     OM1 1204   7.557   5.961   8.777  0.0000  0.0000  0.0000
 1205OM     OM1 1205   7.454   5.737   8.820  0.0000  0.0000  0.0000
 1206OM     OM1 1206   1.848   4.144   1.236  0.0000  0.0000  0.0000
 1207OM     OM1 1207   2.027   4.301   1.349  0.0000  0.0000  0.0000
 1208OM     OM1 1208   1.352   1.058   0.816  0.0000  0.0000  0.0000
 1209OM     OM1 1209   1.372   1.236   1.011  0.0000  0.0000  0.0000
 1210OM     OM1 1210   1.224   1.016   1.032  0.0000  0.0000  0.0000
 1211OM     OM1 1211   8.902   7.902   9.089  0.0000  0.0000  0.0000
 1212OM     OM1 1212   8.881   7.715   9.275  0.0000  0.0000  0.0000
 1213OM     OM1 1213   8.759   7.939   9.304  0.0000  0.0000  0.0000
 1214OM     OM1 1214   9.018   7.930   9.329  0.0000  0.0000  0.0000
 1215OM     OM1 1215   7.752   2.058   0.984  0.0000  0.0000  0.0000
 1216OM     OM1 1216   7.999   2.103   1.073  0.0000  0.0000  0.0000
 1217OM     OM1 1217   7.959   2.037   0.825  0.0000  0.0000  0.0000
 1218OM     OM1 1218   7.867   2.270   0.900  0.0000  0.0000  0.0000
 1219OM     OM1 1219   5.446   5.934   8.796  0.0000  0.0000  0.0000
 1220OM     OM1 1220   5.281   5.566   8.757  0.0000  0.0000  0.0000
 1221OM     OM1 1221   5.339   5.924   8.556  0.0000  0.0000  0.0000
 1222OM     OM1 1222   3.043   5.763   8.264  0.0000  0.0000  0.0000
 1223OM     OM1 1223   3.169   5.989   8.280  0.0000  0.0000  0.0000
 1224OM     OM1 1224   3.287   5.768   8.176  0.0000  0.0000  0.0000
 1225OM     OM1 1225   4.531   6.466   0.498  0.0000  0.0000  0.0000
 1226OM     OM1 1226   4.546   6.452   0.248  0.0000  0.0000  0.0000
 1227OM     OM1 1227   4.441   6.675   0.368  0.0000  0.0000  0.0000
 1228OM     OM1 1228   4.692   6.627   0.355  0.0000  0.0000  0.0000
 1229OM     OM1 1229   0.428   1.586   8.649  0.0000  0.0000  0.0000
 1230OM     OM1 1230   0.622   1.644   8.495  0.0000  0.0000  0.0000
 1231OM     OM1 1231   0.381   1.688   8.409  0.0000  0.0000  0.0000
 1232OM     OM1 1232   0.478   1.837   8.596  0.0000  0.0000  0.0000
 1233OM     OM1 1233   4.964   2.686   0.194  0.0000  0.0000  0.0000
 1234OM     OM1 1234   4.719   2.698   0.270  0.0000  0.0000  0.0000
 1235OM     OM1 1235   4.790   2.773   0.018  0.0000  0.0000  0.0000
 1236OM     OM1 1236   4.758   2.530   0.081  0.0000  0.0000  0.0000
 1237OM     OM1 1237   9.228   4.008   8.463  0.0000  0.0000  0.0000
 1238OM     OM1 1238   9.479   3.948   8.406  0.0000  0.0000  0.0000
 1239OM     OM1 1239   9.299   3.766   8.451  0.0000  0.0000  0.0000
 1240OM     OM1 1240   7.178   1.916   8.421  0.0000  0.0000  0.0000
 1241OM     OM1 1241   7.089   2.015   8.642  0.0000  0.0000  0.0000
 1242OM     OM1 1242   7.231   1.798   8.653  0.0000  0.0000  0.0000
 1243OM     OM1 1243   8.053   7.867   9.211  0.0000  0.0000  0.0000
 1244OM     OM1 1244   8.201   7.663   9.283  0.0000  0.0000  0.0000
 1245OM     OM1 1245   8.282   7.918   9.323  0.0000  0.0000  0.0000
 1246OM     OM1 1246   2.091   4.511   9.022  0.0000  0.0000  0.0000
 1247OM     OM1 1247   2.105   4.374   9.237  0.0000  0.0000  0.0000
 1248OM     OM1 1248   2.186   4.257   9.026  0.0000  0.0000  0.0000
 1249OM     OM1 1249   2.320   4.465   9.140  0.0000  0.0000  0.0000
 1250OM     OM1 1250   3.495   0.377   9.261  0.0000  0.0000  0.0000
 1251OM     OM1 1251   3.564   0.548   9.452  0.0000  0.0000  0.0000
 1252OM     OM1 1252   3.311   0.516   9.391  0.0000  0.0000  0.0000
 1253OM     OM1 1253   3.479   0.632   9.230  0.0000  0.0000  0.0000
 1254OM     OM1 1254   8.368   9.195   0.247  0.0000  0.0000  0.0000
 1255OM     OM1 1255   8.396   9.158   0.508  0.0000  0.0000  0.0000
 1256OM     OM1 1256   8.163   9.219   0.436  0.0000  0.0000  0.0000
 1257OM     OM1 1257   8.329   9.402   0.406  0.0000  0.0000  0.0000
 1258OM     OM1 1258   1.798   1.990   1.108  0.0000  0.0000  0.0000
 1259OM     OM1 1259   1.415   6.837   1.284  0.0000  0.0000  0.0000
 1260OM     OM1 1260   1.177   6.801   1.262  0.0000  0.0000  0.0000
 1261OM     OM1 1261   1.324   6.587   1.192  0.0000  0.0000  0.0000
 1262OM     OM1 1262   1.335   6.801   1.045  0.0000  0.0000  0.0000
 1263OM     OM1 1263   4.904   3.105   8.609  0.0000  0.0000  0.0000
 1264OM     OM1 1264   4.811   3.138   8.846  0.0000  0.0000  0.0000
 1265OM     OM1 1265   4.765   2.916   8.716  0.0000  0.0000  0.0000
 1266OM     OM1 1266   6.718   4.652   0.910  0.0000  0.0000  0.0000
 1267OM     OM1 1267   6.503   4.510   0.963  0.0000  0.0000  0.0000
 1268OM     OM1 1268   6.498   4.742   0.827  0.0000  0.0000  0.0000
 1269OM     OM1 1269   6.548   4.732   1.089  0.0000  0.0000  0.0000
 1270OM     OM1 1270   5.441   0.217   0.499  0.0000  0.0000  0.0000
 1271OM     OM1 1271   5.571   0.054   0.653  0.0000  0.0000  0.0000
 1272OM     OM1 1272   5.369   0.170   0.752  0.0000  0.0000  0.0000
 1273OM     OM1 1273   5.330   9.599   0.560  0.0000  0.0000  0.0000
 1274OM     OM1 1274   6.050   7.124   9.552  0.0000  0.0000  0.0000
 1275OM     OM1 1275   6.247   7.293   9.548  0.0000  0.0000  0.0000
 1276OM     OM1 1276   6.231   7.076   9.377  0.0000  0.0000  0.0000
 1277OM     OM1 1277   6.078   7.272   9.342  0.0000  0.0000  0.0000
 1278OM     OM1 1278   3.122   0.597   9.560  0.0000  0.0000  0.0000
 1279OM     OM1 1279   2.948   0.654   0.138  0.0000  0.0000  0.0000
 1280OM     OM1 1280   2.914   0.448   0.013  0.0000  0.0000  0.0000
 1281OM     OM1 1281   3.130   0.455   0.172  0.0000  0.0000  0.0000
 1282OM     OM1 1282   1.120   7.387   0.085  0.0000  0.0000  0.0000
 1283OM     OM1 1283   1.064   7.645   0.042  0.0000  0.0000  0.0000
 1284OM     OM1 1284   1.172   7.510   0.426  0.0000  0.0000  0.0000
 1285OM     OM1 1285   1.261   7.580   0.185  0.0000  0.0000  0.0000
 1286OM     OM1 1286   8.251   8.538   8.492  0.0000  0.0000  0.0000
 1287OM     OM1 1287   8.187   8.355   8.659  0.0000  0.0000  0.0000
 1288OM     OM1 1288   8.468   8.527   8.327  0.0000  0.0000  0.0000
 1289OM     OM1 1289   4.618   6.975   8.742  0.0000  0.0000  0.0000
 1290OM     OM1 1290   4.591   6.734   8.643  0.0000  0.0000  0.0000
 1291OM     OM1 1291   4.521   6.951   8.504  0.0000  0.0000  0.0000
 1292OM     OM1 1292   4.629   4.097   8.806  0.0000  0.0000  0.0000
 1293OM     OM1 1293   4.726   4.326   8.743  0.0000  0.0000  0.0000
 1294OM     OM1 1294   4.488   4.269   8.659  0.0000  0.0000  0.0000
 1295OM     OM1 1295   4.688   4.142   8.554  0.0000  0.0000  0.0000
 1296OM     OM1 1296   0.404   1.413   0.095  0.0000  0.0000  0.0000
 1297OM     OM1 1297   0.455   1.223   0.270  0.0000  0.0000  0.0000
 1298OM     OM1 1298   0.303   1.177   0.069  0.0000  0.0000  0.0000
 1299OM     OM1 1299   1.669   2.992   8.900  0.0000  0.0000  0.0000
 1300OM     OM1 1300   1.479   3.089   8.738  0.0000  0.0000  0.0000
 1301OM     OM1 1301   1.508   3.163   8.986  0.0000  0.0000  0.0000
 1302OM     OM1 1302   1.421   2.925   8.933  0.0000  0.0000  0.0000
 1303OM     OM1 1303   0.614   8.607   0.508  0.0000  0.0000  0.0000
 1304OM     OM1 1304   0.535   8.971   0.781  0.0000  0.0000  0.0000
 1305OM     OM1 1305   0.701   8.814   0.663  0.0000  0.0000  0.0000
 1306OM     OM1 1306   0.864   8.675   0.514  0.0000  0.0000  0.0000
 1307OM     OM1 1307   3.524   4.042   9.102  0.0000  0.0000  0.0000
 1308OM     OM1 1308   3.357   3.841   9.054  0.0000  0.0000  0.0000
 1309OM     OM1 1309   3.292   4.094   9.017  0.0000  0.0000  0.0000
 1310OM     OM1 1310   4.503   6.205   0.555  0.0000  0.0000  0.0000
 1311OM     OM1 1311   4.401   6.391   0.706  0.0000  0.0000  0.0000
 1312OM     OM1 1312   4.653   6.373   0.705  0.0000  0.0000  0.0000
 1313OM     OM1 1313   9.336   9.467   0.756  0.0000  0.0000  0.0000
 1314OM     OM1 1314   9.152   0.038   0.695  0.0000  0.0000  0.0000
 1315OM     OM1 1315   9.229   9.463   0.522  0.0000  0.0000  0.0000
 1316OM     OM1 1316   9.387   0.063   0.589  0.0000  0.0000  0.0000
 1317OM     OM1 1317   4.148   6.796   0.731  0.0000  0.0000  0.0000
 1318OM     OM1 1318   4.360   6.917   0.787  0.0000  0.0000  0.0000
 1319OM     OM1 1319   4.321   6.828   0.541  0.0000  0.0000  0.0000
 1320OM     OM1 1320   4.357   6.649   0.728  0.0000  0.0000  0.0000
 1321OM     OM1 1321   5.639   0.203   0.324  0.0000  0.0000  0.0000
 1322OM     OM1 1322   5.884   0.258   0.387  0.0000  0.0000  0.0000
 1323OM     OM1 1323   5.842   0.144   0.162  0.0000  0.0000  0.0000
 1324OM     OM1 1324   5.757   0.393   0.196  0.0000  0.0000  0.0000
 1325OM     OM1 1325   9.456   2.113   8.496  0.0000  0.0000  0.0000
 1326OM     OM1 1326   9.299   1.923   8.567  0.0000  0.0000  0.0000
 1327OM     OM1 1327   9.425   1.912   8.338  0.0000  0.0000  0.0000
 1328OM     OM1 1328   9.565   1.878   8.545  0.0000  0.0000  0.0000
 1329OM     OM1 1329   8.225   4.025   8.306  0.0000  0.0000  0.0000
 1330OM     OM1 1330   8.280   4.280   8.270  0.0000  0.0000  0.0000
 1331OM     OM1 1331   8.021   3.883   8.377  0.0000  0.0000  0.0000
 1332OM     OM1 1332   6.108   4.822   0.552  0.0000  0.0000  0.0000
 1333OM     OM1 1333   6.194   4.671   0.751  0.0000  0.0000  0.0000
 1334OM     OM1 1334   6.226   4.601   0.497  0.0000  0.0000  0.0000
 1335OM     OM1 1335   6.366   4.790   0.604  0.0000  0.0000  0.0000
 1336OM     OM1 1336   3.666   3.067   8.555  0.0000  0.0000  0.0000
 1337OM     OM1 1337   3.926   2.993   8.508  0.0000  0.0000  0.0000
 1338OM     OM1 1338   3.724   2.823   8.527  0.0000  0.0000  0.0000
 1339OM     OM1 1339   3.819   2.937   8.733  0.0000  0.0000  0.0000
 1340OM     OM1 1340   5.636   9.383   9.481  0.0000  0.0000  0.0000
 1341OM     OM1 1341   5.840   9.490   9.365  0.0000  0.0000  0.0000
 1342OM     OM1 1342   5.804   9.540   0.008  0.0000  0.0000  0.0000
 1343OM     OM1 1343   7.920   7.319   8.275  0.0000  0.0000  0.0000
 1344OM     OM1 1344   7.675   7.240   8.215  0.0000  0.0000  0.0000
 1345OM     OM1 1345   8.124   8.679   0.367  0.0000  0.0000  0.0000
 1346OM     OM1 1346   7.934   8.581   0.526  0.0000  0.0000  0.0000
 1347OM     OM1 1347   7.873   8.701   0.305  0.0000  0.0000  0.0000
 1348OM     OM1 1348   7.974   8.847   0.496  0.0000  0.0000  0.0000
 1349OM     OM1 1349   0.213   4.437   0.709  0.0000  0.0000  0.0000
 1350OM     OM1 1350   0.225   4.449   0.437  0.0000  0.0000  0.0000
 1351OM     OM1 1351   0.425   4.368   0.592  0.0000  0.0000  0.0000
 1352OM     OM1 1352   0.299   4.305   0.240  0.0000  0.0000  0.0000
 1353OM     OM1 1353   7.137   2.811   0.302  0.0000  0.0000  0.0000
 1354OM     OM1 1354   6.690   2.623   0.317  0.0000  0.0000  0.0000
 1355OM     OM1 1355   6.904   2.919   0.338  0.0000  0.0000  0.0000
 1356OM     OM1 1356   6.916   2.695   0.216  0.0000  0.0000  0.0000
 1357OM     OM1 1357   2.160   5.169   8.886  0.0000  0.0000  0.0000
 1358OM     OM1 1358   1.837   4.840   8.727  0.0000  0.0000  0.0000
 1359OM     OM1 1359   1.967   5.169   9.062  0.0000  0.0000  0.0000
 1360OM     OM1 1360   2.000   4.960   8.906  0.0000  0.0000  0.0000
 1361OM     OM1 1361   1.851   7.737   9.033  0.0000  0.0000  0.0000
 1362OM     OM1 1362   1.894   7.480   9.100  0.0000  0.0000  0.0000
 1363OM     OM1 1363   1.711   7.553   8.925  0.0000  0.0000  0.0000
 1364OM     OM1 1364   1.683   7.601   9.181  0.0000  0.0000  0.0000
 1365OM     OM1 1365   5.581   2.426   0.475  0.0000  0.0000  0.0000
 1366OM     OM1 1366   5.766   2.478   0.651  0.0000  0.0000  0.0000
 1367OM     OM1 1367   5.498   2.437   0.710  0.0000  0.0000  0.0000
 1368OM     OM1 1368   5.575   2.654   0.597  0.0000  0.0000  0.0000
 1369OM     OM1 1369   4.427   3.631   8.390  0.0000  0.0000  0.0000
 1370OM     OM1 1370   4.373   3.883   8.417  0.0000  0.0000  0.0000
 1371OM     OM1 1371   4.563   3.765   8.569  0.0000  0.0000  0.0000
 1372OM     OM1 1372   4.594   3.822   8.314  0.0000  0.0000  0.0000
 1373OM     OM1 1373   3.928   3.210   0.702  0.0000  0.0000  0.0000
 1374OM     OM1 1374   4.152   3.176   0.575  0.0000  0.0000  0.0000
 1375OM     OM1 1375   3.952   3.307   0.460  0.0000  0.0000  0.0000
 1376OM     OM1 1376   6.185   8.840   9.386  0.0000  0.0000  0.0000
 1377OM     OM1 1377   6.415   8.758   9.286  0.0000  0.0000  0.0000
 1378OM     OM1 1378   6.310   8.976   9.199  0.0000  0.0000  0.0000
 1379OM     OM1 1379   6.408   8.957   9.445  0.0000  0.0000  0.0000
 1380OM     OM1 1380   4.006   8.720   8.327  0.0000  0.0000  0.0000
 1381OM     OM1 1381   4.159   8.934   8.321  0.0000  0.0000  0.0000
 1382OM     OM1 1382   4.252   8.720   8.231  0.0000  0.0000  0.0000
 1383OM     OM1 1383   1.616   2.023   8.722  0.0000  0.0000  0.0000
 1384OM     OM1 1384   1.749   2.010   8.949  0.0000  0.0000  0.0000
 1385OM     OM1 1385   1.872   1.978   8.727  0.0000  0.0000  0.0000
 1386OM     OM1 1386   1.705   1.794   8.824  0.0000  0.0000  0.0000
 1387OM     OM1 1387   2.600   0.734   1.082  0.0000  0.0000  0.0000
 1388OM     OM1 1388   2.754   0.945   1.088  0.0000  0.0000  0.0000
 1389OM     OM1 1389   2.846   0.718   0.986  0.0000  0.0000  0.0000
 1390OM     OM1 1390   2.688   6.721   0.896  0.0000  0.0000  0.0000
 1391OM     OM1 1391   2.618   6.703   0.632  0.0000  0.0000  0.0000
 1392OM     OM1 1392   2.814   6.851   0.716  0.0000  0.0000  0.0000
 1393OM     OM1 1393   2.823   6.582   0.721  0.0000  0.0000  0.0000
 1394OM     OM1 1394   4.585   6.338   8.879  0.0000  0.0000  0.0000
 1395OM     OM1 1395   4.576   6.494   9.088  0.0000  0.0000  0.0000
 1396OM     OM1 1396   4.745   6.537   8.898  0.0000  0.0000  0.0000
 1397OM     OM1 1397   4.497   6.589   8.850  0.0000  0.0000  0.0000
 1398OM     OM1 1398   3.851   3.289   8.931  0.0000  0.0000  0.0000
 1399OM     OM1 1399   3.737   3.522   8.998  0.0000  0.0000  0.0000
 1400OM     OM1 1400   3.709   3.309   9.145  0.0000  0.0000  0.0000
 1401OM     OM1 1401   3.587   3.327   8.916  0.0000  0.0000  0.0000
 1402OM     OM1 1402   2.781   8.578   8.996  0.0000  0.0000  0.0000
 1403OM     OM1 1403   2.475   8.403   9.347  0.0000  0.0000  0.0000
 1404OM     OM1 1404   2.555   8.538   8.872  0.0000  0.0000  0.0000
 1405OM     OM1 1405   2.588   8.469   9.125  0.0000  0.0000  0.0000
 1406OM     OM1 1406   2.376   4.564   8.399  0.0000  0.0000  0.0000
 1407OM     OM1 1407   2.562   4.407   8.281  0.0000  0.0000  0.0000
 1408OM     OM1 1408   2.622   4.636   8.403  0.0000  0.0000  0.0000
 1409OM     OM1 1409   3.274   6.161   9.131  0.0000  0.0000  0.0000
 1410OM     OM1 1410   3.196   6.362   9.268  0.0000  0.0000  0.0000
 1411OM     OM1 1411   3.117   6.269   9.494  0.0000  0.0000  0.0000
 1412OM     OM1 1412   3.000   6.186   9.277  0.0000  0.0000  0.0000
 1413OM     OM1 1413   8.914   2.136   8.359  0.0000  0.0000  0.0000
 1414OM     OM1 1414   8.726   2.040   8.204  0.0000  0.0000  0.0000
 1415OM     OM1 1415   7.863   2.464   0.711  0.0000  0.0000  0.0000
 1416OM     OM1 1416   7.732   2.491   0.943  0.0000  0.0000  0.0000
 1417OM     OM1 1417   7.648   2.329   0.758  0.0000  0.0000  0.0000
 1418OM     OM1 1418   7.398   2.836   9.099  0.0000  0.0000  0.0000
 1419OM     OM1 1419   7.316   2.617   9.232  0.0000  0.0000  0.0000
 1420OM     OM1 1420   7.423   2.609   8.998  0.0000  0.0000  0.0000
 1421OM     OM1 1421   7.180   2.729   9.034  0.0000  0.0000  0.0000
 1422OM     OM1 1422   5.646   8.221   8.836  0.0000  0.0000  0.0000
 1423OM     OM1 1423   5.770   8.426   8.753  0.0000  0.0000  0.0000
 1424OM     OM1 1424   5.908   8.255   8.901  0.0000  0.0000  0.0000
 1425OM     OM1 1425   5.733   8.402   9.012  0.0000  0.0000  0.0000
 1426OM     OM1 1426   3.895   0.466   9.239  0.0000  0.0000  0.0000
 1427OM     OM1 1427   4.152   0.476   9.249  0.0000  0.0000  0.0000
 1428OM     OM1 1428   4.041   0.270   9.359  0.0000  0.0000  0.0000
 1429OM     OM1 1429   4.012   0.497   9.473  0.0000  0.0000  0.0000
 1430OM     OM1 1430   2.507   7.812   9.404  0.0000  0.0000  0.0000
 1431OM     OM1 1431   2.385   7.961   9.576  0.0000  0.0000  0.0000
 1432OM     OM1 1432   2.615   7.882   0.037  0.0000  0.0000  0.0000
 1433OM     OM1 1433   0.066   5.138   9.153  0.0000  0.0000  0.0000
 1434OM     OM1 1434   0.064   5.194   9.413  0.0000  0.0000  0.0000
 1435OM     OM1 1435   9.464   5.098   9.294  0.0000  0.0000  0.0000
 1436OM     OM1 1436   0.042   8.943   0.178  0.0000  0.0000  0.0000
 1437OM     OM1 1437   9.476   9.131   0.255  0.0000  0.0000  0.0000
 1438OM     OM1 1438   9.403   8.947   0.086  0.0000  0.0000  0.0000
 1439OM     OM1 1439   9.429   8.892   0.339  0.0000  0.0000  0.0000
 1440OM     OM1 1440   3.120   3.432   0.178  0.0000  0.0000  0.0000
 1441OM     OM1 1441   3.294   3.358   0.358  0.0000  0.0000  0.0000
 1442OM     OM1 1442   3.180   3.591   0.371  0.0000  0.0000  0.0000
 1443OM     OM1 1443   4.427   4.282   8.405  0.0000  0.0000  0.0000
 1444OM     OM1 1444   4.279   4.386   8.229  0.0000  0.0000  0.0000
 1445OM     OM1 1445   3.496   2.522   9.183  0.0000  0.0000  0.0000
 1446OM     OM1 1446   3.355   2.636   9.359  0.0000  0.0000  0.0000
 1447OM     OM1 1447   3.497   2.421   9.418  0.0000  0.0000  0.0000
 1448OM     OM1 1448   3.630   2.639   9.378  0.0000  0.0000  0.0000
 1449OM     OM1 1449   7.065   7.865   8.350  0.0000  0.0000  0.0000
 1450OM     OM1 1450   7.166   7.653   8.247  0.0000  0.0000  0.0000
 1451OM     OM1 1451   5.260   4.762   9.165  0.0000  0.0000  0.0000
 1452OM     OM1 1452   5.136   4.874   8.956  0.0000  0.0000  0.0000
 1453OM     OM1 1453   5.121   4.988   9.187  0.0000  0.0000  0.0000
 1454OM     OM1 1454   4.220   2.626   8.410  0.0000  0.0000  0.0000
 1455OM     OM1 1455   3.997   2.713   8.299  0.0000  0.0000  0.0000
 1456OM     OM1 1456   4.147   2.877   8.438  0.0000  0.0000  0.0000
 1457OM     OM1 1457   7.926   9.187   0.368  0.0000  0.0000  0.0000
 1458OM     OM1 1458   7.979   9.370   0.552  0.0000  0.0000  0.0000
 1459OM     OM1 1459   7.992   9.101   0.597  0.0000  0.0000  0.0000
 1460OM     OM1 1460   8.465   2.378   0.643  0.0000  0.0000  0.0000
 1461OM     OM1 1461   8.277   2.676   0.901  0.0000  0.0000  0.0000
 1462OM     OM1 1462   8.501   2.627   0.778  0.0000  0.0000  0.0000
 1463OM     OM1 1463   8.225   2.615   0.382  0.0000  0.0000  0.0000
 1464OM     OM1 1464   6.504   9.582   9.369  0.0000  0.0000  0.0000
 1465OM     OM1 1465   6.530   9.575   0.022  0.0000  0.0000  0.0000
 1466OM     OM1 1466   6.288   0.031   9.517  0.0000  0.0000  0.0000
 1467OM     OM1 1467   6.494   0.191   9.517  0.0000  0.0000  0.0000
 1468OM     OM1 1468   5.969   6.704   8.491  0.0000  0.0000  0.0000
 1469OM     OM1 1469   5.949   7.062   8.504  0.0000  0.0000  0.0000
 1470OM     OM1 1470   6.086   6.884   8.325  0.0000  0.0000  0.0000
 1471OM     OM1 1471   5.909   7.058   8.253  0.0000  0.0000  0.0000
 1472OM     OM1 1472   9.242   8.984   0.504  0.0000  0.0000  0.0000
 1473OM     OM1 1473   9.195   9.213   0.597  0.0000  0.0000  0.0000
 1474OM     OM1 1474   9.017   9.015   0.644  0.0000  0.0000  0.0000
 1475OM     OM1 1475   9.237   9.018   0.762  0.0000  0.0000  0.0000
 1476OM     OM1 1476   2.043   6.976   1.445  0.0000  0.0000  0.0000
 1477OM     OM1 1477   1.847   7.021   1.283  0.0000  0.0000  0.0000
 1478OM     OM1 1478   7.726   3.000   0.989  0.0000  0.0000  0.0000
 1479OM     OM1 1479   7.515   3.096   0.886  0.0000  0.0000  0.0000
 1480OM     OM1 1480   7.727   3.254   0.935  0.0000  0.0000  0.0000
 1481OM     OM1 1481   7.581   3.172   1.134  0.0000  0.0000  0.0000
 1482OM     OM1 1482   4.254   6.625   9.459  0.0000  0.0000  0.0000
 1483OM     OM1 1483   4.502   6.698   9.506  0.0000  0.0000  0.0000
 1484OM     OM1 1484   4.283   6.773   0.057  0.0000  0.0000  0.0000
 1485OM     OM1 1485   4.317   6.869   9.423  0.0000  0.0000  0.0000
 1486OM     OM1 1486   2.543   3.877   0.560  0.0000  0.0000  0.0000
 1487OM     OM1 1487   2.753   3.753   0.638  0.0000  0.0000  0.0000
 1488OM     OM1 1488   2.717   3.795   0.373  0.0000  0.0000  0.0000
 1489OM     OM1 1489   2.578   3.619   0.509  0.0000  0.0000  0.0000
 1490OM     OM1 1490   5.367   8.077   0.604  0.0000  0.0000  0.0000
 1491OM     OM1 1491   5.319   8.178   0.832  0.0000  0.0000  0.0000
 1492OM     OM1 1492   5.153   8.222   0.632  0.0000  0.0000  0.0000
 1493OM     OM1 1493   5.390   8.339   0.630  0.0000  0.0000  0.0000
 1494OM     OM1 1494   5.749   1.953   8.633  0.0000  0.0000  0.0000
 1495OM     OM1 1495   5.811   1.823   8.413  0.0000  0.0000  0.0000
 1496OM     OM1 1496   5.571   1.908   8.437  0.0000  0.0000  0.0000
 1497OM     OM1 1497   5.642   1.724   8.603  0.0000  0.0000  0.0000
 1498OM     OM1 1498   8.587   3.490   0.381  0.0000  0.0000  0.0000
 1499OM     OM1 1499   8.241   3.453   0.104  0.0000  0.0000  0.0000
 1500OM     OM1 1500   8.406   3.328   0.258  0.0000  0.0000  0.0000
 1501OM     OM1 1501   8.605   3.434   0.131  0.0000  0.0000  0.0000
 1502OM     OM1 1502   6.939   8.146   0.599  0.0000  0.0000  0.0000
 1503OM     OM1 1503   7.128   8.280   0.705  0.0000  0.0000  0.0000
 1504OM     OM1 1504   7.188   8.031   0.614  0.0000  0.0000  0.0000
 1505OM     OM1 1505   7.130   8.228   0.453  0.0000  0.0000  0.0000
 1506OM     OM1 1506   5.011   7.213   0.495  0.0000  0.0000  0.0000
 1507OM     OM1 1507   5.084   7.219   0.734  0.0000  0.0000  0.0000
 1508OM     OM1 1508   5.026   7.452   0.618  0.0000  0.0000  0.0000
 1509OM     OM1 1509   5.243   7.319   0.555  0.0000  0.0000  0.0000
 1510OM     OM1 1510   0.110   0.931   0.848  0.0000  0.0000  0.0000
 1511OM     OM1 1511   0.082   0.907   0.600  0.0000  0.0000  0.0000
 1512OM     OM1 1512   0.330   0.875   0.746  0.0000  0.0000  0.0000
 1513OM     OM1 1513   0.151   0.698   0.730  0.0000  0.0000  0.0000
 1514OM     OM1 1514   4.471   8.250   0.872  0.0000  0.0000  0.0000
 1515OM     OM1 1515   4.410   8.415   0.666  0.0000  0.0000  0.0000
 1516OM     OM1 1516   4.449   8.159   0.637  0.0000  0.0000  0.0000
 1517OM     OM1 1517   4.237   8.267   0.771  0.0000  0.0000  0.0000
 1518OM     OM1 1518   7.214   5.279   0.778  0.0000  0.0000  0.0000
 1519OM     OM1 1519   7.002   5.280   0.631  0.0000  0.0000  0.0000
 1520OM     OM1 1520   6.995   5.202   0.878  0.0000  0.0000  0.0000
 1521OM     OM1 1521   7.114   5.050   0.690  0.0000  0.0000  0.0000
 1522OM     OM1 1522   2.967   3.899   8.997  0.0000  0.0000  0.0000
 1523OM     OM1 1523   2.895   3.954   9.249  0.0000  0.0000  0.0000
 1524OM     OM1 1524   2.975   3.711   9.187  0.0000  0.0000  0.0000
 1525OM     OM1 1525   2.750   3.800   9.102  0.0000  0.0000  0.0000
 1526OM     OM1 1526   8.857   6.298   1.239  0.0000  0.0000  0.0000
 1527OM     OM1 1527   8.832   6.423   1.002  0.0000  0.0000  0.0000
 1528OM     OM1 1528   8.825   6.165   1.017  0.0000  0.0000  0.0000
 1529OM     OM1 1529   9.055   6.295   1.066  0.0000  0.0000  0.0000
 1530OM     OM1 1530   7.450   1.725   9.021  0.0000  0.0000  0.0000
 1531OM     OM1 1531   7.332   1.522   9.118  0.0000  0.0000  0.0000
 1532OM     OM1 1532   7.493   1.487   8.906  0.0000  0.0000  0.0000
 1533OM     OM1 1533   7.594   1.548   9.131  0.0000  0.0000  0.0000
 1534OM     OM1 1534   0.147   8.475   9.048  0.0000  0.0000  0.0000
 1535OM     OM1 1535   0.083   8.224   9.084  0.0000  0.0000  0.0000
 1536OM     OM1 1536   0.015   8.359   8.870  0.0000  0.0000  0.0000
 1537OM     OM1 1537   9.501   8.408   9.107  0.0000  0.0000  0.0000
 1538OM     OM1 1538   3.397   3.617   9.183  0.0000  0.0000  0.0000
 1539OM     OM1 1539   3.532   3.675   8.965  0.0000  0.0000  0.0000
 1540OM     OM1 1540   3.276   3.603   8.960  0.0000  0.0000  0.0000
 1541OM     OM1 1541   2.088   4.172   8.426  0.0000  0.0000  0.0000
 1542OM     OM1 1542   1.836   4.109   8.409  0.0000  0.0000  0.0000
 1543OM     OM1 1543   4.019   5.256   9.321  0.0000  0.0000  0.0000
 1544OM     OM1 1544   4.182   5.374   9.494  0.0000  0.0000  0.0000
 1545OM     OM1 1545   4.064   5.510   9.299  0.0000  0.0000  0.0000
 1546OM     OM1 1546   4.256   5.338   9.251  0.0000  0.0000  0.0000
 1547OM     OM1 1547   2.217   0.421   0.168  0.0000  0.0000  0.0000
 1548OM     OM1 1548   2.462   0.332   0.187  0.0000  0.0000  0.0000
 1549OM     OM1 1549   2.283   0.193   0.301  0.0000  0.0000  0.0000
 1550OM     OM1 1550   2.282   0.192   0.048  0.0000  0.0000  0.0000
 1551OM     OM1 1551   4.814   2.324   9.429  0.0000  0.0000  0.0000
 1552OM     OM1 1552   4.676   2.112   9.414  0.0000  0.0000  0.0000
 1553OM     OM1 1553   4.807   2.141   0.030  0.0000  0.0000  0.0000
 1554OM     OM1 1554   4.629   2.314   9.597  0.0000  0.0000  0.0000
 1555OM     OM1 1555   0.560   0.303   0.390  0.0000  0.0000  0.0000
 1556OM     OM1 1556   0.795   0.341   0.304  0.0000  0.0000  0.0000
 1557OM     OM1 1557   0.772   0.236   0.538  0.0000  0.0000  0.0000
 1558OM     OM1 1558   0.695   0.091   0.340  0.0000  0.0000  0.0000
 1559OM     OM1 1559   8.120   4.296   9.491  0.0000  0.0000  0.0000
 1560OM     OM1 1560   8.013   4.075   9.533  0.0000  0.0000  0.0000
 1561OM     OM1 1561   8.056   4.221   0.135  0.0000  0.0000  0.0000
 1562OM     OM1 1562   8.263   4.120   0.019  0.0000  0.0000  0.0000
 1563OM     OM1 1563   7.815   7.892   1.100  0.0000  0.0000  0.0000
 1564OM     OM1 1564   7.816   7.991   0.849  0.0000  0.0000  0.0000
 1565OM     OM1 1565   8.034   7.915   0.959  0.0000  0.0000  0.0000
 1566OM     OM1 1566   7.915   8.127   1.058  0.0000  0.0000  0.0000
 1567OM     OM1 1567   5.343   2.073   9.064  0.0000  0.0000  0.0000
 1568OM     OM1 1568   5.599   2.222   8.767  0.0000  0.0000  0.0000
 1569OM     OM1 1569   5.365   2.219   8.850  0.0000  0.0000  0.0000
 1570OM     OM1 1570   5.422   2.330   9.073  0.0000  0.0000  0.0000
 1571OM     OM1 1571   4.969   1.275   0.629  0.0000  0.0000  0.0000
 1572OM     OM1 1572   4.970   1.507   0.726  0.0000  0.0000  0.0000
 1573OM     OM1 1573   5.091   1.458   0.489  0.0000  0.0000  0.0000
 1574OM     OM1 1574   5.201   1.379   0.705  0.0000  0.0000  0.0000
 1575OM     OM1 1575   8.554   0.070   0.704  0.0000  0.0000  0.0000
 1576OM     OM1 1576   8.407   0.149   0.904  0.0000  0.0000  0.0000
 1577OM     OM1 1577   8.420   0.024   0.493  0.0000  0.0000  0.0000
 1578OM     OM1 1578   8.554   0.253   0.521  0.0000  0.0000  0.0000
 1579OM     OM1 1579   6.556   5.446   0.562  0.0000  0.0000  0.0000
 1580OM     OM1 1580   6.307   5.486   0.625  0.0000  0.0000  0.0000
 1581OM     OM1 1581   6.506   5.564   0.793  0.0000  0.0000  0.0000
 1582OM     OM1 1582   6.456   5.685   0.572  0.0000  0.0000  0.0000
 1583OM     OM1 1583   2.825   2.592   1.076  0.0000  0.0000  0.0000
 1584OM     OM1 1584   2.718   2.665   0.846  0.0000  0.0000  0.0000
 1585OM     OM1 1585   2.731   2.843   1.032  0.0000  0.0000  0.0000
 1586OM     OM1 1586   0.907   7.007   9.333  0.0000  0.0000  0.0000
 1587OM     OM1 1587   0.866   6.940   9.575  0.0000  0.0000  0.0000
 1588OM     OM1 1588   0.979   6.713   9.603  0.0000  0.0000  0.0000
 1589OM     OM1 1589   5.320   5.888   0.593  0.0000  0.0000  0.0000
 1590OM     OM1 1590   5.194   6.049   0.416  0.0000  0.0000  0.0000
 1591OM     OM1 1591   5.118   5.800   0.456  0.0000  0.0000  0.0000
 1592OM     OM1 1592   5.082   5.994   0.633  0.0000  0.0000  0.0000
 1593OM     OM1 1593   6.318   5.918   8.833  0.0000  0.0000  0.0000
 1594OM     OM1 1594   6.465   5.713   8.883  0.0000  0.0000  0.0000
 1595OM     OM1 1595   6.332   5.719   8.653  0.0000  0.0000  0.0000
 1596OM     OM1 1596   6.284   3.449   0.369  0.0000  0.0000  0.0000
 1597OM     OM1 1597   6.037   3.410   0.298  0.0000  0.0000  0.0000
 1598OM     OM1 1598   6.209   3.200   0.379  0.0000  0.0000  0.0000
 1599OM     OM1 1599   0.146   6.098   0.201  0.0000  0.0000  0.0000
 1600OM     OM1 1600   0.113   6.349   0.160  0.0000  0.0000  0.0000
 1601OM     OM1 1601   0.352   6.269   0.243  0.0000  0.0000  0.0000
 1602OM     OM1 1602   0.087   0.348   9.013  0.0000  0.0000  0.0000
 1603OM     OM1 1603   0.168   0.254   9.233  0.0000  0.0000  0.0000
 1604OM     OM1 1604   9.571   0.441   9.222  0.0000  0.0000  0.0000
 1605OM     OM1 1605   2.596   6.586   9.605  0.0000  0.0000  0.0000
 1606OM     OM1 1606   2.409   6.725   9.508  0.0000  0.0000  0.0000
 1607OM     OM1 1607   2.642   6.821   9.480  0.0000  0.0000  0.0000
 1608OM     OM1 1608   2.555   6.811   0.120  0.0000  0.0000  0.0000
 1609OM     OM1 1609   8.945   0.392   8.916  0.0000  0.0000  0.0000
 1610OM     OM1 1610   8.720   0.534   8.946  0.0000  0.0000  0.0000
 1611OM     OM1 1611   8.959   0.642   8.996  0.0000  0.0000  0.0000
 1612OM     OM1 1612   9.012   0.146   8.975  0.0000  0.0000  0.0000
 1613OM     OM1 1613   9.180   8.519   0.434  0.0000  0.0000  0.0000
 1614OM     OM1 1614   8.992   8.427   0.268  0.0000  0.0000  0.0000
 1615OM     OM1 1615   8.978   8.666   0.386  0.0000  0.0000  0.0000
 1616OM     OM1 1616   0.038   6.795   8.891  0.0000  0.0000  0.0000
 1617OM     OM1 1617   9.586   6.961   8.692  0.0000  0.0000  0.0000
 1618OM     OM1 1618   0.226   6.908   8.761  0.0000  0.0000  0.0000
 1619OM     OM1 1619   8.698   1.687   9.572  0.0000  0.0000  0.0000
 1620OM     OM1 1620   8.758   1.716   0.216  0.0000  0.0000  0.0000
 1621OM     OM1 1621   8.956   1.546   0.215  0.0000  0.0000  0.0000
 1622OM     OM1 1622   8.981   1.797   0.119  0.0000  0.0000  0.0000
 1623OM     OM1 1623   3.725   5.436   1.226  0.0000  0.0000  0.0000
 1624OM     OM1 1624   3.625   5.444   0.978  0.0000  0.0000  0.0000
 1625OM     OM1 1625   3.632   5.229   1.119  0.0000  0.0000  0.0000
 1626OM     OM1 1626   4.662   5.473   9.365  0.0000  0.0000  0.0000
 1627OM     OM1 1627   4.686   5.585   9.139  0.0000  0.0000  0.0000
 1628OM     OM1 1628   4.503   5.400   9.165  0.0000  0.0000  0.0000
 1629OM     OM1 1629   4.760   5.337   9.172  0.0000  0.0000  0.0000
 1630OM     OM1 1630   1.456   1.970   0.234  0.0000  0.0000  0.0000
 1631OM     OM1 1631   1.515   1.882   0.461  0.0000  0.0000  0.0000
 1632OM     OM1 1632   1.347   2.076   0.456  0.0000  0.0000  0.0000
 1633OM     OM1 1633   1.497   1.635   0.420  0.0000  0.0000  0.0000
 1634OM     OM1 1634   2.817   3.244   1.292  0.0000  0.0000  0.0000
 1635OM     OM1 1635   2.929   3.037   1.190  0.0000  0.0000  0.0000
 1636OM     OM1 1636   2.682   3.074   1.137  0.0000  0.0000  0.0000
 1637OM     OM1 1637   7.238   7.565   0.785  0.0000  0.0000  0.0000
 1638OM     OM1 1638   7.319   7.810   0.737  0.0000  0.0000  0.0000
 1639OM     OM1 1639   7.480   7.617   0.705  0.0000  0.0000  0.0000
 1640OM     OM1 1640   7.376   7.661   0.964  0.0000  0.0000  0.0000
 1641OM     OM1 1641   3.331   4.216   8.511  0.0000  0.0000  0.0000
 1642OM     OM1 1642   3.530   4.314   8.390  0.0000  0.0000  0.0000
 1643OM     OM1 1643   3.505   4.052   8.402  0.0000  0.0000  0.0000
 1644OM     OM1 1644   7.247   3.972   8.314  0.0000  0.0000  0.0000
 1645OM     OM1 1645   7.360   4.185   8.399  0.0000  0.0000  0.0000
 1646OM     OM1 1646   7.501   3.968   8.434  0.0000  0.0000  0.0000
 1647OM     OM1 1647   4.435   7.566   9.087  0.0000  0.0000  0.0000
 1648OM     OM1 1648   4.654   7.191   8.906  0.0000  0.0000  0.0000
 1649OM     OM1 1649   4.543   7.436   8.899  0.0000  0.0000  0.0000
 1650OM     OM1 1650   6.965   2.182   1.141  0.0000  0.0000  0.0000
 1651OM     OM1 1651   6.771   2.272   1.277  0.0000  0.0000  0.0000
 1652OM     OM1 1652   6.846   7.036   8.318  0.0000  0.0000  0.0000
 1653OM     OM1 1653   7.010   7.173   8.467  0.0000  0.0000  0.0000
 1654OM     OM1 1654   6.791   7.276   8.386  0.0000  0.0000  0.0000
 1655OM     OM1 1655   6.670   6.842   8.357  0.0000  0.0000  0.0000
 1656OM     OM1 1656   1.011   3.894   0.589  0.0000  0.0000  0.0000
 1657OM     OM1 1657   0.990   3.916   0.842  0.0000  0.0000  0.0000
 1658OM     OM1 1658   1.219   3.854   0.752  0.0000  0.0000  0.0000
 1659OM     OM1 1659   1.023   3.678   0.743  0.0000  0.0000  0.0000
 1660OM     OM1 1660   4.493   5.654   0.756  0.0000  0.0000  0.0000
 1661OM     OM1 1661   4.298   5.821   0.812  0.0000  0.0000  0.0000
 1662OM     OM1 1662   4.244   5.579   0.731  0.0000  0.0000  0.0000
 1663OM     OM1 1663   4.342   5.621   0.972  0.0000  0.0000  0.0000
 1664OM     OM1 1664   0.561   5.573   9.233  0.0000  0.0000  0.0000
 1665OM     OM1 1665   0.397   5.414   9.354  0.0000  0.0000  0.0000
 1666OM     OM1 1666   0.429   5.405   9.089  0.0000  0.0000  0.0000
 1667OM     OM1 1667   0.302   5.606   9.192  0.0000  0.0000  0.0000
 1668OM     OM1 1668   5.170   3.768   0.054  0.0000  0.0000  0.0000
 1669OM     OM1 1669   5.195   4.001   9.548  0.0000  0.0000  0.0000
 1670OM     OM1 1670   5.146   3.805   9.394  0.0000  0.0000  0.0000
 1671OM     OM1 1671   4.956   3.880   9.557  0.0000  0.0000  0.0000
 1672OM     OM1 1672   8.754   1.582   9.325  0.0000  0.0000  0.0000
 1673OM     OM1 1673   8.536   1.709   9.381  0.0000  0.0000  0.0000
 1674OM     OM1 1674   3.136   2.514   0.210  0.0000  0.0000  0.0000
 1675OM     OM1 1675   3.060   2.320   0.041  0.0000  0.0000  0.0000
 1676OM     OM1 1676   3.276   2.288   0.203  0.0000  0.0000  0.0000
 1677OM     OM1 1677   3.033   2.296   0.293  0.0000  0.0000  0.0000
 1678OM     OM1 1678   7.343   1.443   0.227  0.0000  0.0000  0.0000
 1679OM     OM1 1679   7.420   1.313   0.014  0.0000  0.0000  0.0000
 1680OM     OM1 1680   7.387   1.565   9.602  0.0000  0.0000  0.0000
 1681OM     OM1 1681   7.630   7.104   8.432  0.0000  0.0000  0.0000
 1682OM     OM1 1682   7.461   7.283   8.354  0.0000  0.0000  0.0000
 1683OM     OM1 1683   7.465   7.057   8.249  0.0000  0.0000  0.0000
 1684OM     OM1 1684   4.476   7.165   8.354  0.0000  0.0000  0.0000
 1685OM     OM1 1685   4.060   6.935   8.244  0.0000  0.0000  0.0000
 1686OM     OM1 1686   9.074   0.236   1.161  0.0000  0.0000  0.0000
 1687OM     OM1 1687   9.315   0.253   1.095  0.0000  0.0000  0.0000
 1688OM     OM1 1688   9.282   0.002   1.169  0.0000  0.0000  0.0000
 1689OM     OM1 1689   1.355   0.576   8.357  0.0000  0.0000  0.0000
 1690OM     OM1 1690   1.523   0.699   8.504  0.0000  0.0000  0.0000
 1691OM     OM1 1691   1.317   0.823   8.445  0.0000  0.0000  0.0000
 1692OM     OM1 1692   9.071   4.826   0.709  0.0000  0.0000  0.0000
 1693OM     OM1 1693   9.030   4.658   0.509  0.0000  0.0000  0.0000
 1694OM     OM1 1694   9.112   4.577   0.745  0.0000  0.0000  0.0000
 1695OM     OM1 1695   8.861   4.656   0.710  0.0000  0.0000  0.0000
 1696OM     OM1 1696   1.219   9.511   8.552  0.0000  0.0000  0.0000
 1697OM     OM1 1697   1.463   9.477   8.480  0.0000  0.0000  0.0000
 1698OM     OM1 1698   1.507   9.235   8.571  0.0000  0.0000  0.0000
 1699OM     OM1 1699   1.526   9.290   8.316  0.0000  0.0000  0.0000
 1700OM     OM1 1700   8.187   5.465   8.595  0.0000  0.0000  0.0000
 1701OM     OM1 1701   8.176   5.426   8.336  0.0000  0.0000  0.0000
 1702OM     OM1 1702   8.145   5.230   8.498  0.0000  0.0000  0.0000
 1703OM     OM1 1703   7.955   5.415   8.466  0.0000  0.0000  0.0000
 1704OM     OM1 1704   1.743   4.104   8.900  0.0000  0.0000  0.0000
 1705OM     OM1 1705   1.955   4.046   8.745  0.0000  0.0000  0.0000
 1706OM     OM1 1706   1.830   4.263   8.718  0.0000  0.0000  0.0000
 1707OM     OM1 1707   1.718   4.049   8.637  0.0000  0.0000  0.0000
 1708OM     OM1 1708   6.829   0.384   9.312  0.0000  0.0000  0.0000
 1709OM     OM1 1709   6.674   0.378   9.515  0.0000  0.0000  0.0000
 1710OM     OM1 1710   6.577   0.438   9.292  0.0000  0.0000  0.0000
 1711OM     OM1 1711   8.022   4.782   1.199  0.0000  0.0000  0.0000
 1712OM     OM1 1712   8.112   5.034   1.240  0.0000  0.0000  0.0000
 1713OM     OM1 1713   7.965   4.610   1.005  0.0000  0.0000  0.0000
 1714OM     OM1 1714   8.207   4.636   1.057  0.0000  0.0000  0.0000
 1715OM     OM1 1715   6.768   0.777   8.424  0.0000  0.0000  0.0000
 1716OM     OM1 1716   6.593   0.912   8.578  0.0000  0.0000  0.0000
 1717OM     OM1 1717   6.553   0.888   8.329  0.0000  0.0000  0.0000
 1718OM     OM1 1718   9.523   7.661   8.370  0.0000  0.0000  0.0000
 1719OM     OM1 1719   0.369   8.379   8.977  0.0000  0.0000  0.0000
 1720OM     OM1 1720   0.712   8.269   8.732  0.0000  0.0000  0.0000
 1721OM     OM1 1721   0.449   8.269   8.688  0.0000  0.0000  0.0000
 1722OM     OM1 1722   0.537   8.196   8.910  0.0000  0.0000  0.0000
 1723OM     OM1 1723   2.719   8.516   0.325  0.0000  0.0000  0.0000
 1724OM     OM1 1724   2.560   8.615   0.136  0.0000  0.0000  0.0000
 1725OM     OM1 1725   2.750   8.762   0.244  0.0000  0.0000  0.0000
 1726OM     OM1 1726   2.524   8.698   0.367  0.0000  0.0000  0.0000
 1727OM     OM1 1727   4.339   6.280   1.266  0.0000  0.0000  0.0000
 1728OM     OM1 1728   8.778   6.824   9.210  0.0000  0.0000  0.0000
 1729OM     OM1 1729   9.022   6.775   9.313  0.0000  0.0000  0.0000
 1730OM     OM1 1730   8.834   6.854   9.467  0.0000  0.0000  0.0000
 1731OM     OM1 1731   7.622   2.191   8.985  0.0000  0.0000  0.0000
 1732OM     OM1 1732   7.811   2.278   9.133  0.0000  0.0000  0.0000
 1733OM     OM1 1733   7.551   2.273   9.222  0.0000  0.0000  0.0000
 1734OM     OM1 1734   7.628   2.444   9.037  0.0000  0.0000  0.0000
 1735OM     OM1 1735   1.936   8.534   1.117  0.0000  0.0000  0.0000
 1736OM     OM1 1736   2.101   8.691   1.234  0.0000  0.0000  0.0000
 1737OM     OM1 1737   1.848   8.731   1.270  0.0000  0.0000  0.0000
 1738OM     OM1 1738   3.865   5.965   9.150  0.0000  0.0000  0.0000
 1739OM     OM1 1739   3.752   5.751   9.215  0.0000  0.0000  0.0000
 1740OM     OM1 1740   4.054   6.017   9.315  0.0000  0.0000  0.0000
 1741OM     OM1 1741   3.746   5.894   9.436  0.0000  0.0000  0.0000
 1742OM     OM1 1742   4.889   7.878   1.322  0.0000  0.0000  0.0000
 1743OM     OM1 1743   6.911   4.004   9.419  0.0000  0.0000  0.0000
 1744OM     OM1 1744   7.060   4.206   9.339  0.0000  0.0000  0.0000
 1745OM     OM1 1745   6.806   4.204   9.296  0.0000  0.0000  0.0000
 1746OM     OM1 1746   6.948   4.044   9.158  0.0000  0.0000  0.0000
 1747OM     OM1 1747   8.230   0.717   0.193  0.0000  0.0000  0.0000
 1748OM     OM1 1748   8.221   0.978   0.246  0.0000  0.0000  0.0000
 1749OM     OM1 1749   8.545   0.993   9.499  0.0000  0.0000  0.0000
 1750OM     OM1 1750   9.030   2.331   1.152  0.0000  0.0000  0.0000
 1751OM     OM1 1751   0.333   9.555   8.321  0.0000  0.0000  0.0000
 1752OM     OM1 1752   0.099   9.424   8.365  0.0000  0.0000  0.0000
 1753OM     OM1 1753   0.316   9.303   8.397  0.0000  0.0000  0.0000
 1754OM     OM1 1754   5.410   1.757   0.946  0.0000  0.0000  0.0000
 1755OM     OM1 1755   5.376   1.896   1.166  0.0000  0.0000  0.0000
 1756OM     OM1 1756   5.465   1.641   1.170  0.0000  0.0000  0.0000
 1757OM     OM1 1757   5.610   1.843   1.092  0.0000  0.0000  0.0000
 1758OM     OM1 1758   0.590   8.895   8.382  0.0000  0.0000  0.0000
 1759OM     OM1 1759   0.394   9.063   8.423  0.0000  0.0000  0.0000
 1760OM     OM1 1760   0.640   9.154   8.383  0.0000  0.0000  0.0000
 1761OM     OM1 1761   1.877   2.966   8.745  0.0000  0.0000  0.0000
 1762OM     OM1 1762   1.870   2.815   8.950  0.0000  0.0000  0.0000
 1763OM     OM1 1763   1.682   2.780   8.770  0.0000  0.0000  0.0000
 1764OM     OM1 1764   4.686   3.862   9.546  0.0000  0.0000  0.0000
 1765OM     OM1 1765   4.593   3.915   0.177  0.0000  0.0000  0.0000
 1766OM     OM1 1766   4.694   4.100   0.028  0.0000  0.0000  0.0000
 1767OM     OM1 1767   4.449   3.975   9.579  0.0000  0.0000  0.0000
 1768OM     OM1 1768   9.259   5.935   0.156  0.0000  0.0000  0.0000
 1769OM     OM1 1769   9.398   6.023   9.558  0.0000  0.0000  0.0000
 1770OM     OM1 1770   9.296   6.196   0.119  0.0000  0.0000  0.0000
 1771OM     OM1 1771   9.493   6.052   0.196  0.0000  0.0000  0.0000
 1772OM     OM1 1772   5.078   1.986   8.296  0.0000  0.0000  0.0000
 1773OM     OM1 1773   5.129   2.116   8.520  0.0000  0.0000  0.0000
 1774OM     OM1 1774   4.957   2.204   8.336  0.0000  0.0000  0.0000
 1775OM     OM1 1775   4.906   1.987   8.492  0.0000  0.0000  0.0000
 1776OM     OM1 1776   1.878   2.237   1.101  0.0000  0.0000  0.0000
 1777OM     OM1 1777   2.058   2.071   1.156  0.0000  0.0000  0.0000
 1778OM     OM1 1778   0.545   6.444   0.201  0.0000  0.0000  0.0000
 1779OM     OM1 1779   0.481   6.365   0.448  0.0000  0.0000  0.0000
 1780OM     OM1 1780   0.614   6.215   0.292  0.0000  0.0000  0.0000
 1781OM     OM1 1781   7.141   6.093   8.519  0.0000  0.0000  0.0000
 1782OM     OM1 1782   7.336   6.088   8.697  0.0000  0.0000  0.0000
 1783OM     OM1 1783   7.249   6.310   8.597  0.0000  0.0000  0.0000
 1784OM     OM1 1784   7.092   6.160   8.762  0.0000  0.0000  0.0000
 1785OM     OM1 1785   0.457   0.785   0.414  0.0000  0.0000  0.0000
 1786OM     OM1 1786   0.472   0.965   0.232  0.0000  0.0000  0.0000
 1787OM     OM1 1787   0.234   0.862   0.297  0.0000  0.0000  0.0000
 1788OM     OM1 1788   5.057   0.827   8.767  0.0000  0.0000  0.0000
 1789OM     OM1 1789   4.960   0.792   8.995  0.0000  0.0000  0.0000
 1790OM     OM1 1790   5.180   0.929   8.983  0.0000  0.0000  0.0000
 1791OM     OM1 1791   4.954   1.037   8.895  0.0000  0.0000  0.0000
 1792OM     OM1 1792   6.513   2.088   0.745  0.0000  0.0000  0.0000
 1793OM     OM1 1793   6.610   1.992   0.971  0.0000  0.0000  0.0000
 1794OM     OM1 1794   6.657   2.246   0.908  0.0000  0.0000  0.0000
 1795OM     OM1 1795   5.591   1.094   0.528  0.0000  0.0000  0.0000
 1796OM     OM1 1796   5.579   1.122   0.266  0.0000  0.0000  0.0000
 1797OM     OM1 1797   5.514   1.320   0.417  0.0000  0.0000  0.0000
 1798OM     OM1 1798   5.764   1.247   0.398  0.0000  0.0000  0.0000
 1799OM     OM1 1799   2.979   1.251   8.950  0.0000  0.0000  0.0000
 1800OM     OM1 1800   2.948   1.503   9.045  0.0000  0.0000  0.0000
 1801OM     OM1 1801   3.077   1.452   8.817  0.0000  0.0000  0.0000
 1802OM     OM1 1802   3.175   1.387   9.043  0.0000  0.0000  0.0000
 1803OM     OM1 1803   5.803   9.418   0.461  0.0000  0.0000  0.0000
 1804OM     OM1 1804   5.918   0.038   0.523  0.0000  0.0000  0.0000
 1805OM     OM1 1805   5.774   9.516   0.706  0.0000  0.0000  0.0000
 1806OM     OM1 1806   6.005   9.428   0.632  0.0000  0.0000  0.0000
 1807OM     OM1 1807   4.698   3.224   1.206  0.0000  0.0000  0.0000
 1808OM     OM1 1808   4.480   3.351   1.154  0.0000  0.0000  0.0000
 1809OM     OM1 1809   7.275   0.921   0.164  0.0000  0.0000  0.0000
 1810OM     OM1 1810   7.537   0.809   0.197  0.0000  0.0000  0.0000
 1811OM     OM1 1811   7.313   0.683   0.250  0.0000  0.0000  0.0000
 1812OM     OM1 1812   5.298   1.848   8.947  0.0000  0.0000  0.0000
 1813OM     OM1 1813   5.454   1.855   9.163  0.0000  0.0000  0.0000
 1814OM     OM1 1814   5.194   1.906   9.181  0.0000  0.0000  0.0000
 1815OM     OM1 1815   9.569   6.548   8.860  0.0000  0.0000  0.0000
 1816OM     OM1 1816   0.100   6.519   8.649  0.0000  0.0000  0.0000
 1817OM     OM1 1817   0.007   6.309   8.781  0.0000  0.0000  0.0000
 1818OM     OM1 1818   9.437   6.459   8.657  0.0000  0.0000  0.0000
 1819OM     OM1 1819   4.124   1.198   0.346  0.0000  0.0000  0.0000
 1820OM     OM1 1820   4.030   1.425   0.269  0.0000  0.0000  0.0000
 1821OM     OM1 1821   4.216   1.309   0.123  0.0000  0.0000  0.0000
 1822OM     OM1 1822   3.862   2.337   9.158  0.0000  0.0000  0.0000
 1823OM     OM1 1823   3.901   2.144   9.341  0.0000  0.0000  0.0000
 1824OM     OM1 1824   3.665   2.264   9.305  0.0000  0.0000  0.0000
 1825OM     OM1 1825   6.028   1.016   8.983  0.0000  0.0000  0.0000
 1826OM     OM1 1826   5.973   1.091   8.745  0.0000  0.0000  0.0000
 1827OM     OM1 1827   6.197   1.173   8.838  0.0000  0.0000  0.0000
 1828OM     OM1 1828   6.160   0.917   8.779  0.0000  0.0000  0.0000
 1829OM     OM1 1829   8.776   2.667   1.297  0.0000  0.0000  0.0000
 1830OM     OM1 1830   8.846   2.925   1.319  0.0000  0.0000  0.0000
 1831OM     OM1 1831   8.622   2.861   1.209  0.0000  0.0000  0.0000
 1832OM     OM1 1832   5.779   8.243   9.314  0.0000  0.0000  0.0000
 1833OM     OM1 1833   5.794   8.414   9.515  0.0000  0.0000  0.0000
 1834OM     OM1 1834   5.999   8.366   9.361  0.0000  0.0000  0.0000
 1835OM     OM1 1835   5.787   8.490   9.257  0.0000  0.0000  0.0000
 1836OM     OM1 1836   9.401   9.599   8.980  0.0000  0.0000  0.0000
 1837OM     OM1 1837   9.336   9.378   9.104  0.0000  0.0000  0.0000
 1838OM     OM1 1838   9.186   9.600   9.112  0.0000  0.0000  0.0000
 1839OM     OM1 1839   7.465   3.586   0.569  0.0000  0.0000  0.0000
 1840OM     OM1 1840   7.517   3.637   0.317  0.0000  0.0000  0.0000
 1841OM     OM1 1841   7.555   3.815   0.496  0.0000  0.0000  0.0000
 1842OM     OM1 1842   7.715   3.593   0.491  0.0000  0.0000  0.0000
 1843OM     OM1 1843   6.653   4.171   0.625  0.0000  0.0000  0.0000
 1844OM     OM1 1844   6.809   4.385   0.636  0.0000  0.0000  0.0000
 1845OM     OM1 1845   6.595   4.398   0.499  0.0000  0.0000  0.0000
 1846OM     OM1 1846   6.577   4.371   0.763  0.0000  0.0000  0.0000
 1847OM     OM1 1847   8.196   6.066   0.334  0.0000  0.0000  0.0000
 1848OM     OM1 1848   8.169   6.311   0.401  0.0000  0.0000  0.0000
 1849OM     OM1 1849   8.102   6.241   0.156  0.0000  0.0000  0.0000
 1850OM     OM1 1850   8.360   6.235   0.240  0.0000  0.0000  0.0000
 1851OM     OM1 1851   5.361   7.138   9.469  0.0000  0.0000  0.0000
 1852OM     OM1 1852   5.265   7.224   0.086  0.0000  0.0000  0.0000
 1853OM     OM1 1853   5.315   6.974   0.067  0.0000  0.0000  0.0000
 1854OM     OM1 1854   5.108   7.072   9.553  0.0000  0.0000  0.0000
 1855OM     OM1 1855   5.495   5.218   8.716  0.0000  0.0000  0.0000
 1856OM     OM1 1856   5.296   5.060   8.759  0.0000  0.0000  0.0000
 1857OM     OM1 1857   5.255   5.317   8.754  0.0000  0.0000  0.0000
 1858OM     OM1 1858   6.345   2.300   1.387  0.0000  0.0000  0.0000
 1859OM     OM1 1859   0.553   7.503   0.795  0.0000  0.0000  0.0000
 1860OM     OM1 1860   0.682   7.637   0.978  0.0000  0.0000  0.0000
 1861OM     OM1 1861   0.729   7.387   0.955  0.0000  0.0000  0.0000
 1862OM     OM1 1862   0.804   7.532   0.754  0.0000  0.0000  0.0000
 1863OM     OM1 1863   5.829   0.722   8.368  0.0000  0.0000  0.0000
 1864OM     OM1 1864   5.780   0.941   8.264  0.0000  0.0000  0.0000
 1865OM     OM1 1865   6.032   0.865   8.293  0.0000  0.0000  0.0000
 1866OM     OM1 1866   3.021   7.720   1.122  0.0000  0.0000  0.0000
 1867OM     OM1 1867   3.227   7.601   1.212  0.0000  0.0000  0.0000
 1868OM     OM1 1868   6.896   1.998   9.283  0.0000  0.0000  0.0000
 1869OM     OM1 1869   6.681   2.117   9.378  0.0000  0.0000  0.0000
 1870OM     OM1 1870   6.882   2.256   9.285  0.0000  0.0000  0.0000
 1871OM     OM1 1871   6.897   2.128   9.512  0.0000  0.0000  0.0000
 1872OM     OM1 1872   3.876   7.923   0.454  0.0000  0.0000  0.0000
 1873OM     OM1 1873   3.915   7.671   0.514  0.0000  0.0000  0.0000
 1874OM     OM1 1874   3.917   7.856   0.706  0.0000  0.0000  0.0000
 1875OM     OM1 1875   3.699   7.797   0.590  0.0000  0.0000  0.0000
 1876OM     OM1 1876   2.596   5.993   1.125  0.0000  0.0000  0.0000
 1877OM     OM1 1877   2.702   5.847   1.308  0.0000  0.0000  0.0000
 1878OM     OM1 1878   2.851   5.978   1.124  0.0000  0.0000  0.0000
 1879OM     OM1 1879   8.137   3.545   0.749  0.0000  0.0000  0.0000
 1880OM     OM1 1880   8.110   3.787   0.667  0.0000  0.0000  0.0000
 1881OM     OM1 1881   8.187   3.729   0.918  0.0000  0.0000  0.0000
 1882OM     OM1 1882   8.351   3.710   0.721  0.0000  0.0000  0.0000
 1883OM     OM1 1883   5.398   5.340   9.439  0.0000  0.0000  0.0000
 1884OM     OM1 1884   5.253   5.438   9.221  0.0000  0.0000  0.0000
 1885OM     OM1 1885   5.509   5.429   9.228  0.0000  0.0000  0.0000
 1886OM     OM1 1886   1.924   4.265   9.382  0.0000  0.0000  0.0000
 1887OM     OM1 1887   1.898   4.510   9.314  0.0000  0.0000  0.0000
 1888OM     OM1 1888   2.091   4.442   9.485  0.0000  0.0000  0.0000
 1889OM     OM1 1889   5.484   7.551   1.267  0.0000  0.0000  0.0000
 1890OM     OM1 1890   5.268   7.578   1.114  0.0000  0.0000  0.0000
 1891OM     OM1 1891   5.425   7.777   1.149  0.0000  0.0000  0.0000
 1892OM     OM1 1892   1.039   0.342   0.258  0.0000  0.0000  0.0000
 1893OM     OM1 1893   1.271   0.300   0.353  0.0000  0.0000  0.0000
 1894OM     OM1 1894   0.912   0.573   0.316  0.0000  0.0000  0.0000
 1895OM     OM1 1895   1.065   0.373   0.509  0.0000  0.0000  0.0000
 1896OM     OM1 1896   8.156   8.201   8.258  0.0000  0.0000  0.0000
 1897OM     OM1 1897   8.286   8.200   8.479  0.0000  0.0000  0.0000
 1898OM     OM1 1898   8.329   4.725   9.411  0.0000  0.0000  0.0000
 1899OM     OM1 1899   8.256   4.966   9.342  0.0000  0.0000  0.0000
 1900OM     OM1 1900   8.297   4.787   9.155  0.0000  0.0000  0.0000
 1901OM     OM1 1901   8.498   4.875   9.278  0.0000  0.0000  0.0000
 1902OM     OM1 1902   7.910   1.630   0.547  0.0000  0.0000  0.0000
 1903OM     OM1 1903   7.522   1.412   0.649  0.0000  0.0000  0.0000
 1904OM     OM1 1904   7.840   1.325   0.745  0.0000  0.0000  0.0000
 1905OM     OM1 1905   7.675   1.625   0.648  0.0000  0.0000  0.0000
 1906OM     OM1 1906   6.250   8.484   0.109  0.0000  0.0000  0.0000
 1907OM     OM1 1907   6.051   8.488   0.269  0.0000  0.0000  0.0000
 1908OM     OM1 1908   6.273   8.620   0.327  0.0000  0.0000  0.0000
 1909OM     OM1 1909   6.275   8.370   0.353  0.0000  0.0000  0.0000
 1910OM     OM1 1910   8.150   0.299   0.428  0.0000  0.0000  0.0000
 1911OM     OM1 1911   8.351   0.238   0.276  0.0000  0.0000  0.0000
 1912OM     OM1 1912   8.438   0.296   0.050  0.0000  0.0000  0.0000
 1913OM     OM1 1913   8.104   0.216   0.188  0.0000  0.0000  0.0000
 1914OM     OM1 1914   5.836   7.040   0.072  0.0000  0.0000  0.0000
 1915OM     OM1 1915   5.898   7.232   0.232  0.0000  0.0000  0.0000
 1916OM     OM1 1916   5.725   7.023   0.296  0.0000  0.0000  0.0000
 1917OM     OM1 1917   5.664   7.233   0.145  0.0000  0.0000  0.0000
 1918OM     OM1 1918   7.687   2.744   0.971  0.0000  0.0000  0.0000
 1919OM     OM1 1919   7.495   2.581   0.912  0.0000  0.0000  0.0000
 1920OM     OM1 1920   1.153   4.035   1.178  0.0000  0.0000  0.0000
 1921OM     OM1 1921   0.929   4.037   1.307  0.0000  0.0000  0.0000
 1922OM     OM1 1922   1.003   3.828   1.167  0.0000  0.0000  0.0000
 1923OM     OM1 1923   0.920   4.048   1.049  0.0000  0.0000  0.0000
 1924OM     OM1 1924   0.947   8.010   8.746  0.0000  0.0000  0.0000
 1925OM     OM1 1925   1.013   7.865   8.548  0.0000  0.0000  0.0000
 1926OM     OM1 1926   1.251   7.967   8.484  0.0000  0.0000  0.0000
 1927OM     OM1 1927   1.498   7.994   8.526  0.0000  0.0000  0.0000
 1928OM     OM1 1928   4.437   9.162   0.927  0.0000  0.0000  0.0000
 1929OM     OM1 1929   4.260   8.915   1.185  0.0000  0.0000  0.0000
 1930OM     OM1 1930   4.247   8.892   0.600  0.0000  0.0000  0.0000
 1931OM     OM1 1931   4.229   9.149   1.069  0.0000  0.0000  0.0000
 1932OM     OM1 1932   7.234   7.133   0.008  0.0000  0.0000  0.0000
 1933OM     OM1 1933   7.462   7.226   0.118  0.0000  0.0000  0.0000
 1934OM     OM1 1934   7.313   7.387   9.587  0.0000  0.0000  0.0000
 1935OM     OM1 1935   7.225   7.305   0.206  0.0000  0.0000  0.0000
 1936OM     OM1 1936   1.450   7.574   9.334  0.0000  0.0000  0.0000
 1937OM     OM1 1937   1.450   7.615   9.083  0.0000  0.0000  0.0000
 1938OM     OM1 1938   1.540   7.387   9.197  0.0000  0.0000  0.0000
 1939OM     OM1 1939   3.113   8.233   8.191  0.0000  0.0000  0.0000
 1940OM     OM1 1940   2.642   9.500   8.940  0.0000  0.0000  0.0000
 1941OM     OM1 1941   2.407   9.563   9.011  0.0000  0.0000  0.0000
 1942OM     OM1 1942   2.548   9.431   9.185  0.0000  0.0000  0.0000
 1943OM     OM1 1943   2.319   2.088   1.114  0.0000  0.0000  0.0000
 1944OM     OM1 1944   2.481   2.067   1.322  0.0000  0.0000  0.0000
 1945OM     OM1 1945   2.494   1.891   1.140  0.0000  0.0000  0.0000
 1946OM     OM1 1946   4.231   8.861   8.762  0.0000  0.0000  0.0000
 1947OM     OM1 1947   4.564   8.763   8.927  0.0000  0.0000  0.0000
 1948OM     OM1 1948   4.226   8.657   8.592  0.0000  0.0000  0.0000
 1949OM     OM1 1949   0.862   3.676   8.437  0.0000  0.0000  0.0000
 1950OM     OM1 1950   1.005   3.797   8.604  0.0000  0.0000  0.0000
 1951OM     OM1 1951   0.846   3.946   8.467  0.0000  0.0000  0.0000
 1952OM     OM1 1952   4.346   1.811   0.234  0.0000  0.0000  0.0000
 1953OM     OM1 1953   4.295   1.733   9.593  0.0000  0.0000  0.0000
 1954OM     OM1 1954   4.113   1.861   0.137  0.0000  0.0000  0.0000
 1955OM     OM1 1955   4.165   1.622   0.179  0.0000  0.0000  0.0000
 1956OM     OM1 1956   5.982   8.856   8.655  0.0000  0.0000  0.0000
 1957OM     OM1 1957   5.801   8.674   8.662  0.0000  0.0000  0.0000
 1958OM     OM1 1958   5.759   8.876   8.499  0.0000  0.0000  0.0000
 1959OM     OM1 1959   5.745   8.918   8.749  0.0000  0.0000  0.0000
 1960OM     OM1 1960   7.940   0.266   8.416  0.0000  0.0000  0.0000
 1961OM     OM1 1961   7.753   0.354   8.574  0.0000  0.0000  0.0000
 1962OM     OM1 1962   7.743   0.108   8.452  0.0000  0.0000  0.0000
 1963OM     OM1 1963   7.888   0.147   8.651  0.0000  0.0000  0.0000
 1964OM     OM1 1964   1.343   1.328   9.153  0.0000  0.0000  0.0000
 1965OM     OM1 1965   1.501   1.249   9.337  0.0000  0.0000  0.0000
 1966OM     OM1 1966   1.459   1.499   9.319  0.0000  0.0000  0.0000
 1967OM     OM1 1967   1.601   1.395   9.133  0.0000  0.0000  0.0000
 1968OM     OM1 1968   0.537   3.924   1.067  0.0000  0.0000  0.0000
 1969OM     OM1 1969   0.331   3.936   1.246  0.0000  0.0000  0.0000
 1970OM     OM1 1970   0.508   3.744   1.246  0.0000  0.0000  0.0000
 1971OM     OM1 1971   0.429   7.147   1.161  0.0000  0.0000  0.0000
 1972OM     OM1 1972   0.180   7.067   1.172  0.0000  0.0000  0.0000
 1973OM     OM1 1973   0.253   7.243   0.989  0.0000  0.0000  0.0000
 1974OM     OM1 1974   0.191   7.130   0.770  0.0000  0.0000  0.0000
 1975OM     OM1 1975   6.763   4.379   9.109  0.0000  0.0000  0.0000
 1976OM     OM1 1976   6.690   4.749   9.155  0.0000  0.0000  0.0000
 1977OM     OM1 1977   6.883   4.598   9.053  0.0000  0.0000  0.0000
 1978OM     OM1 1978   6.922   4.732   9.272  0.0000  0.0000  0.0000
 1979OM     OM1 1979   8.706   1.917   1.023  0.0000  0.0000  0.0000
 1980OM     OM1 1980   8.943   1.890   1.143  0.0000  0.0000  0.0000
 1981OM     OM1 1981   8.931   1.882   0.884  0.0000  0.0000  0.0000
 1982OM     OM1 1982   8.884   2.106   0.999  0.0000  0.0000  0.0000
 1983OM     OM1 1983   6.823   7.359   1.040  0.0000  0.0000  0.0000
 1984OM     OM1 1984   6.790   7.203   1.248  0.0000  0.0000  0.0000
 1985OM     OM1 1985   6.583   7.312   1.111  0.0000  0.0000  0.0000
 1986OM     OM1 1986   6.737   7.450   1.282  0.0000  0.0000  0.0000
 1987OM     OM1 1987   5.586   0.994   8.445  0.0000  0.0000  0.0000
 1988OM     OM1 1988   5.541   0.815   8.639  0.0000  0.0000  0.0000
 1989OM     OM1 1989   5.723   1.148   8.692  0.0000  0.0000  0.0000
 1990OM     OM1 1990   5.476   1.060   8.669  0.0000  0.0000  0.0000
 1991OM     OM1 1991   8.810   8.465   1.119  0.0000  0.0000  0.0000
 1992OM     OM1 1992   8.615   8.637   1.096  0.0000  0.0000  0.0000
 1993OM     OM1 1993   8.851   8.711   1.206  0.0000  0.0000  0.0000
 1994OM     OM1 1994   8.843   8.662   0.954  0.0000  0.0000  0.0000
 1995OM     OM1 1995   6.440   6.982   9.235  0.0000  0.0000  0.0000
 1996OM     OM1 1996   6.579   7.114   9.394  0.0000  0.0000  0.0000
 1997OM     OM1 1997   6.693   6.905   9.270  0.0000  0.0000  0.0000
 1998OM     OM1 1998   6.650   7.121   9.140  0.0000  0.0000  0.0000
 1999OM     OM1 1999   6.444   3.060   9.081  0.0000  0.0000  0.0000
 2000OM     OM1 2000   6.287   2.909   8.936  0.0000  0.0000  0.0000
 2001OM     OM1 2001   6.523   2.832   9.009  0.0000  0.0000  0.0000
 2002OM     OM1 2002   6.506   3.024   8.829  0.0000  0.0000  0.0000
 2003OM     OM1 2003   3.320   0.063   9.243  0.0000  0.0000  0.0000
 2004OM     OM1 2004   3.532   0.098   9.399  0.0000  0.0000  0.0000
 2005OM     OM1 2005   3.527   0.154   9.140  0.0000  0.0000  0.0000
 2006OM     OM1 2006   4.158   7.709   0.512  0.0000  0.0000  0.0000
 2007OM     OM1 2007   4.047   7.622   0.286  0.0000  0.0000  0.0000
 2008OM     OM1 2008   4.094   7.463   0.488  0.0000  0.0000  0.0000
 2009OM     OM1 2009   0.255   7.989   8.308  0.0000  0.0000  0.0000
 2010OM     OM1 2010   2.017   8.627   0.878  0.0000  0.0000  0.0000
 2011OM     OM1 2011   1.938   8.706   0.633  0.0000  0.0000  0.0000
 2012OM     OM1 2012   1.910   8.856   0.840  0.0000  0.0000  0.0000
 2013OM     OM1 2013   2.142   8.823   0.747  0.0000  0.0000  0.0000
 2014OM     OM1 2014   1.235   3.689   8.403  0.0000  0.0000  0.0000
 2015OM     OM1 2015   1.472   3.749   8.492  0.0000  0.0000  0.0000
 2016OM     OM1 2016   1.350   3.541   8.595  0.0000  0.0000  0.0000
 2017OM     OM1 2017   1.255   3.765   8.651  0.0000  0.0000  0.0000
 2018OM     OM1 2018   1.960   1.738   1.184  0.0000  0.0000  0.0000
 2019OM     OM1 2019   2.188   1.680   1.297  0.0000  0.0000  0.0000
 2020OM     OM1 2020   7.921   7.429   8.506  0.0000  0.0000  0.0000
 2021OM     OM1 2021   7.952   7.583   8.298  0.0000  0.0000  0.0000
 2022OM     OM1 2022   8.144   7.410   8.371  0.0000  0.0000  0.0000
 2023OM     OM1 2023   6.258   0.279   8.632  0.0000  0.0000  0.0000
 2024OM     OM1 2024   5.999   0.269   8.659  0.0000  0.0000  0.0000
 2025OM     OM1 2025   6.122   0.093   8.504  0.0000  0.0000  0.0000
 2026OM     OM1 2026   6.107   0.332   8.422  0.0000  0.0000  0.0000
 2027OM     OM1 2027   8.542   1.423   1.353  0.0000  0.0000  0.0000
 2028OM     OM1 2028   8.416   1.388   1.129  0.0000  0.0000  0.0000
 2029OM     OM1 2029   5.639   7.517   8.541  0.0000  0.0000  0.0000
 2030OM     OM1 2030   5.877   7.433   8.606  0.0000  0.0000  0.0000
 2031OM     OM1 2031   5.829   7.507   8.366  0.0000  0.0000  0.0000
 2032OM     OM1 2032   5.825   7.687   8.569  0.0000  0.0000  0.0000
 2033OM     OM1 2033   1.636   4.497   8.761  0.0000  0.0000  0.0000
 2034OM     OM1 2034   1.841   4.483   8.591  0.0000  0.0000  0.0000
 2035OM     OM1 2035   1.685   4.684   8.581  0.0000  0.0000  0.0000
 2036OM     OM1 2036   1.597   4.432   8.522  0.0000  0.0000  0.0000
 2037OM     OM1 2037   1.268   0.704   0.166  0.0000  0.0000  0.0000
 2038OM     OM1 2038   1.391   0.778   0.377  0.0000  0.0000  0.0000
 2039OM     OM1 2039   1.400   0.521   0.306  0.0000  0.0000  0.0000
 2040OM     OM1 2040   1.530   0.697   0.167  0.0000  0.0000  0.0000
 2041OM     OM1 2041   4.717   4.047   8.302  0.0000  0.0000  0.0000
 2042OM     OM1 2042   4.835   3.820   8.246  0.0000  0.0000  0.0000
 2043OM     OM1 2043   9.310   2.676   8.316  0.0000  0.0000  0.0000
 2044OM     OM1 2044   9.499   2.725   8.487  0.0000  0.0000  0.0000
 2045OM     OM1 2045   9.567   2.610   8.267  0.0000  0.0000  0.0000
 2046OM     OM1 2046   1.652   6.351   8.260  0.0000  0.0000  0.0000
 2047OM     OM1 2047   1.466   6.185   8.290  0.0000  0.0000  0.0000
 2048OM     OM1 2048   1.437   6.412   8.404  0.0000  0.0000  0.0000
 2049OM     OM1 2049   6.681   5.175   8.762  0.0000  0.0000  0.0000
 2050OM     OM1 2050   6.575   5.132   8.996  0.0000  0.0000  0.0000
 2051OM     OM1 2051   6.832   5.092   8.965  0.0000  0.0000  0.0000
 2052OM     OM1 2052   6.744   5.331   8.971  0.0000  0.0000  0.0000
 2053OM     OM1 2053   9.086   7.388   9.546  0.0000  0.0000  0.0000
 2054OM     OM1 2054   8.976   7.560   0.097  0.0000  0.0000  0.0000
 2055OM     OM1 2055   0.015   0.184   0.590  0.0000  0.0000  0.0000
 2056OM     OM1 2056   0.167   0.161   0.390  0.0000  0.0000  0.0000
 2057OM     OM1 2057   0.270   0.271   0.597  0.0000  0.0000  0.0000
 2058OM     OM1 2058   0.229   0.027   0.617  0.0000  0.0000  0.0000
 2059OM     OM1 2059   0.142   9.594   9.271  0.0000  0.0000  0.0000
 2060OM     OM1 2060   0.164   9.393   9.087  0.0000  0.0000  0.0000
 2061OM     OM1 2061   0.099   9.347   9.342  0.0000  0.0000  0.0000
 2062OM     OM1 2062   0.526   2.326   0.866  0.0000  0.0000  0.0000
 2063OM     OM1 2063   0.308   2.276   0.992  0.0000  0.0000  0.0000
 2064OM     OM1 2064   0.411   2.526   0.999  0.0000  0.0000  0.0000
 2065OM     OM1 2065   0.297   2.440   0.788  0.0000  0.0000  0.0000
 2066OM     OM1 2066   6.613   7.624   1.431  0.0000  0.0000  0.0000
 2067OM     OM1 2067   5.632   1.681   9.096  0.0000  0.0000  0.0000
 2068OM     OM1 2068   5.713   1.910   9.189  0.0000  0.0000  0.0000
 2069OM     OM1 2069   5.599   1.740   9.352  0.0000  0.0000  0.0000
 2070OM     OM1 2070   9.326   7.309   9.514  0.0000  0.0000  0.0000
 2071OM     OM1 2071   9.216   7.408   9.308  0.0000  0.0000  0.0000
 2072OM     OM1 2072   1.060   3.710   0.338  0.0000  0.0000  0.0000
 2073OM     OM1 2073   1.245   3.545   0.404  0.0000  0.0000  0.0000
 2074OM     OM1 2074   1.058   3.347   9.572  0.0000  0.0000  0.0000
 2075OM     OM1 2075   4.197   2.980   9.091  0.0000  0.0000  0.0000
 2076OM     OM1 2076   4.379   2.857   9.226  0.0000  0.0000  0.0000
 2077OM     OM1 2077   4.303   2.775   8.986  0.0000  0.0000  0.0000
 2078OM     OM1 2078   4.460   2.973   9.007  0.0000  0.0000  0.0000
 2079OM     OM1 2079   1.826   8.225   0.683  0.0000  0.0000  0.0000
 2080OM     OM1 2080   1.895   8.401   0.879  0.0000  0.0000  0.0000
 2081OM     OM1 2081   2.049   8.371   0.672  0.0000  0.0000  0.0000
 2082OM     OM1 2082   8.510   2.095   1.032  0.0000  0.0000  0.0000
 2083OM     OM1 2083   8.471   1.859   0.923  0.0000  0.0000  0.0000
 2084OM     OM1 2084   4.663   5.627   8.743  0.0000  0.0000  0.0000
 2085OM     OM1 2085   4.826   5.585   8.543  0.0000  0.0000  0.0000
 2086OM     OM1 2086   4.776   5.397   8.704  0.0000  0.0000  0.0000
 2087OM     OM1 2087   4.593   5.461   8.540  0.0000  0.0000  0.0000
 2088OM     OM1 2088   2.524   1.672   8.770  0.0000  0.0000  0.0000
 2089OM     OM1 2089   2.493   1.608   9.013  0.0000  0.0000  0.0000
 2090OM     OM1 2090   2.323   1.523   8.838  0.0000  0.0000  0.0000
 2091OM     OM1 2091   2.333   1.783   8.911  0.0000  0.0000  0.0000
 2092OM     OM1 2092   3.358   7.342   8.447  0.0000  0.0000  0.0000
 2093OM     OM1 2093   3.424   7.170   8.635  0.0000  0.0000  0.0000
 2094OM     OM1 2094   3.187   7.177   8.535  0.0000  0.0000  0.0000
 2095OM     OM1 2095   3.375   7.070   8.396  0.0000  0.0000  0.0000
 2096OM     OM1 2096   9.021   8.796   8.435  0.0000  0.0000  0.0000
 2097OM     OM1 2097   9.225   8.644   8.373  0.0000  0.0000  0.0000
 2098OM     OM1 2098   7.681   4.712   8.450  0.0000  0.0000  0.0000
 2099OM     OM1 2099   7.868   4.601   8.292  0.0000  0.0000  0.0000
 2100OM     OM1 2100   7.511   4.894   8.518  0.0000  0.0000  0.0000
 2101OM     OM1 2101   4.969   6.865   9.490  0.0000  0.0000  0.0000
 2102OM     OM1 2102   4.876   7.017   0.072  0.0000  0.0000  0.0000
 2103OM     OM1 2103   4.885   7.113   9.439  0.0000  0.0000  0.0000
 2104OM     OM1 2104   1.028   4.263   0.603  0.0000  0.0000  0.0000
 2105OM     OM1 2105   0.882   4.144   0.805  0.0000  0.0000  0.0000
 2106OM     OM1 2106   0.852   4.396   0.752  0.0000  0.0000  0.0000
 2107OM     OM1 2107   6.114   0.436   1.220  0.0000  0.0000  0.0000
 2108OM     OM1 2108   5.940   0.602   1.139  0.0000  0.0000  0.0000
 2109OM     OM1 2109   3.367   3.606   8.483  0.0000  0.0000  0.0000
 2110OM     OM1 2110   3.154   3.748   8.493  0.0000  0.0000  0.0000
 2111OM     OM1 2111   3.235   3.615   8.709  0.0000  0.0000  0.0000
 2112OM     OM1 2112   3.131   3.490   8.511  0.0000  0.0000  0.0000
 2113OM     OM1 2113   4.273   6.206   8.654  0.0000  0.0000  0.0000
 2114OM     OM1 2114   4.351   5.950   8.624  0.0000  0.0000  0.0000
 2115OM     OM1 2115   4.244   6.032   8.845  0.0000  0.0000  0.0000
 2116OM     OM1 2116   4.484   6.122   8.768  0.0000  0.0000  0.0000
 2117OM     OM1 2117   6.170   7.962   9.578  0.0000  0.0000  0.0000
 2118OM     OM1 2118   6.048   7.749   9.560  0.0000  0.0000  0.0000
 2119OM     OM1 2119   5.827   7.913   9.562  0.0000  0.0000  0.0000
 2120OM     OM1 2120   5.864   7.722   0.126  0.0000  0.0000  0.0000
 2121OM     OM1 2121   8.060   1.412   9.457  0.0000  0.0000  0.0000
 2122OM     OM1 2122   7.885   1.232   9.352  0.0000  0.0000  0.0000
 2123OM     OM1 2123   8.132   1.189   9.331  0.0000  0.0000  0.0000
 2124OM     OM1 2124   8.045   1.391   9.203  0.0000  0.0000  0.0000
 2125OM     OM1 2125   7.880   8.470   0.762  0.0000  0.0000  0.0000
 2126OM     OM1 2126   7.968   8.318   0.566  0.0000  0.0000  0.0000
 2127OM     OM1 2127   6.953   7.933   0.151  0.0000  0.0000  0.0000
 2128OM     OM1 2128   6.745   7.922   0.002  0.0000  0.0000  0.0000
 2129OM     OM1 2129   6.728   7.838   0.251  0.0000  0.0000  0.0000
 2130OM     OM1 2130   6.870   7.705   0.055  0.0000  0.0000  0.0000
 2131OM     OM1 2131   2.809   9.509   8.749  0.0000  0.0000  0.0000
 2132OM     OM1 2132   2.554   9.476   8.698  0.0000  0.0000  0.0000
 2133OM     OM1 2133   5.048   6.205   8.514  0.0000  0.0000  0.0000
 2134OM     OM1 2134   5.054   6.304   8.755  0.0000  0.0000  0.0000
 2135OM     OM1 2135   5.277   6.295   8.619  0.0000  0.0000  0.0000
 2136OM     OM1 2136   5.104   6.465   8.549  0.0000  0.0000  0.0000
 2137OM     OM1 2137   1.818   2.364   8.582  0.0000  0.0000  0.0000
 2138OM     OM1 2138   1.984   2.184   8.617  0.0000  0.0000  0.0000
 2139OM     OM1 2139   2.054   2.364   8.445  0.0000  0.0000  0.0000
 2140OM     OM1 2140   3.557   8.436   0.728  0.0000  0.0000  0.0000
 2141OM     OM1 2141   3.798   8.399   0.648  0.0000  0.0000  0.0000
 2142OM     OM1 2142   3.690   8.643   0.652  0.0000  0.0000  0.0000
 2143OM     OM1 2143   3.635   8.469   0.467  0.0000  0.0000  0.0000
 2144OM     OM1 2144   1.195   9.364   8.758  0.0000  0.0000  0.0000
 2145OM     OM1 2145   1.309   9.453   8.981  0.0000  0.0000  0.0000
 2146OM     OM1 2146   1.186   9.216   8.972  0.0000  0.0000  0.0000
 2147OM     OM1 2147   1.053   9.436   8.963  0.0000  0.0000  0.0000
 2148OM     OM1 2148   1.715   6.481   1.416  0.0000  0.0000  0.0000
 2149OM     OM1 2149   3.839   5.167   0.972  0.0000  0.0000  0.0000
 2150OM     OM1 2150   3.682   4.976   1.069  0.0000  0.0000  0.0000
 2151OM     OM1 2151   3.606   5.140   0.880  0.0000  0.0000  0.0000
 2152OM     OM1 2152   8.135   5.715   0.119  0.0000  0.0000  0.0000
 2153OM     OM1 2153   8.137   5.761   9.466  0.0000  0.0000  0.0000
 2154OM     OM1 2154   8.306   5.889   9.603  0.0000  0.0000  0.0000
 2155OM     OM1 2155   8.325   5.621   9.570  0.0000  0.0000  0.0000
 2156OM     OM1 2156   2.802   5.951   0.454  0.0000  0.0000  0.0000
 2157OM     OM1 2157   2.632   6.153   0.436  0.0000  0.0000  0.0000
 2158OM     OM1 2158   2.736   6.081   0.669  0.0000  0.0000  0.0000
 2159OM     OM1 2159   7.697   8.248   1.064  0.0000  0.0000  0.0000
 2160OM     OM1 2160   7.901   8.383   1.159  0.0000  0.0000  0.0000
 2161OM     OM1 2161   4.774   8.644   8.449  0.0000  0.0000  0.0000
 2162OM     OM1 2162   4.825   8.881   8.367  0.0000  0.0000  0.0000
 2163OM     OM1 2163   5.126   8.522   8.351  0.0000  0.0000  0.0000
 2164OM     OM1 2164   4.942   8.671   8.250  0.0000  0.0000  0.0000
 2165OM     OM1 2165   3.345   8.326   8.245  0.0000  0.0000  0.0000
 2166OM     OM1 2166   3.394   8.589   8.313  0.0000  0.0000  0.0000
 2167OM     OM1 2167   9.238   2.738   9.057  0.0000  0.0000  0.0000
 2168OM     OM1 2168   9.189   2.780   8.796  0.0000  0.0000  0.0000
 2169OM     OM1 2169   9.266   2.551   8.888  0.0000  0.0000  0.0000
 2170OM     OM1 2170   9.027   2.632   8.946  0.0000  0.0000  0.0000
 2171OM     OM1 2171   6.464   5.037   9.550  0.0000  0.0000  0.0000
 2172OM     OM1 2172   6.409   5.261   9.448  0.0000  0.0000  0.0000
 2173OM     OM1 2173   6.508   5.249   0.089  0.0000  0.0000  0.0000
 2174OM     OM1 2174   6.259   5.197   0.043  0.0000  0.0000  0.0000
 2175OM     OM1 2175   5.760   4.472   1.024  0.0000  0.0000  0.0000
 2176OM     OM1 2176   5.363   4.700   1.248  0.0000  0.0000  0.0000
 2177OM     OM1 2177   5.831   4.624   1.222  0.0000  0.0000  0.0000
 2178OM     OM1 2178   5.582   4.625   1.139  0.0000  0.0000  0.0000
 2179OM     OM1 2179   8.728   7.935   9.560  0.0000  0.0000  0.0000
 2180OM     OM1 2180   8.640   8.101   0.117  0.0000  0.0000  0.0000
 2181OM     OM1 2181   5.026   6.635   9.352  0.0000  0.0000  0.0000
 2182OM     OM1 2182   5.171   6.844   9.330  0.0000  0.0000  0.0000
 2183OM     OM1 2183   4.919   6.833   9.239  0.0000  0.0000  0.0000
 2184OM     OM1 2184   4.346   7.472   0.920  0.0000  0.0000  0.0000
 2185OM     OM1 2185   4.269   7.459   0.683  0.0000  0.0000  0.0000
 2186OM     OM1 2186   4.473   7.623   0.735  0.0000  0.0000  0.0000
 2187OM     OM1 2187   4.503   7.363   0.742  0.0000  0.0000  0.0000
 2188OM     OM1 2188   7.694   5.935   0.126  0.0000  0.0000  0.0000
 2189OM     OM1 2189   7.479   6.054   0.032  0.0000  0.0000  0.0000
 2190OM     OM1 2190   7.648   5.940   9.471  0.0000  0.0000  0.0000
 2191OM     OM1 2191   7.512   5.790   0.014  0.0000  0.0000  0.0000
 2192OM     OM1 2192   5.594   3.069   8.567  0.0000  0.0000  0.0000
 2193OM     OM1 2193   5.614   3.186   8.802  0.0000  0.0000  0.0000
 2194OM     OM1 2194   5.331   2.938   8.581  0.0000  0.0000  0.0000
 2195OM     OM1 2195   5.498   2.938   8.768  0.0000  0.0000  0.0000
 2196OM     OM1 2196   8.214   5.609   0.547  0.0000  0.0000  0.0000
 2197OM     OM1 2197   8.453   5.565   0.447  0.0000  0.0000  0.0000
 2198OM     OM1 2198   8.387   5.460   0.679  0.0000  0.0000  0.0000
 2199OM     OM1 2199   8.282   5.372   0.462  0.0000  0.0000  0.0000
 2200OM     OM1 2200   8.310   0.988   8.308  0.0000  0.0000  0.0000
 2201OM     OM1 2201   8.524   1.123   8.311  0.0000  0.0000  0.0000
 2202OM     OM1 2202   7.962   6.206   9.538  0.0000  0.0000  0.0000
 2203OM     OM1 2203   7.867   6.135   9.295  0.0000  0.0000  0.0000
 2204OM     OM1 2204   8.003   5.976   9.432  0.0000  0.0000  0.0000
 2205OM     OM1 2205   8.123   6.192   9.334  0.0000  0.0000  0.0000
 2206OM     OM1 2206   5.512   0.635   8.829  0.0000  0.0000  0.0000
 2207OM     OM1 2207   5.636   0.845   8.892  0.0000  0.0000  0.0000
 2208OM     OM1 2208   5.752   0.679   8.737  0.0000  0.0000  0.0000
 2209OM     OM1 2209   1.541   8.970   8.597  0.0000  0.0000  0.0000
 2210OM     OM1 2210   1.576   9.136   8.797  0.0000  0.0000  0.0000
 2211OM     OM1 2211   1.340   9.067   8.717  0.0000  0.0000  0.0000
 2212OM     OM1 2212   8.906   5.561   0.661  0.0000  0.0000  0.0000
 2213OM     OM1 2213   8.939   5.445   0.421  0.0000  0.0000  0.0000
 2214OM     OM1 2214   9.094   5.645   0.504  0.0000  0.0000  0.0000
 2215OM     OM1 2215   9.098   5.398   0.610  0.0000  0.0000  0.0000
 2216OM     OM1 2216   8.094   2.000   8.420  0.0000  0.0000  0.0000
 2217OM     OM1 2217   7.883   2.035   8.261  0.0000  0.0000  0.0000
 2218OM     OM1 2218   3.549   2.456   0.584  0.0000  0.0000  0.0000
 2219OM     OM1 2219   3.489   2.614   0.786  0.0000  0.0000  0.0000
 2220OM     OM1 2220   3.741   2.570   0.706  0.0000  0.0000  0.0000
 2221OM     OM1 2221   3.581   2.729   0.582  0.0000  0.0000  0.0000
 2222OM     OM1 2222   4.510   0.889   0.113  0.0000  0.0000  0.0000
 2223OM     OM1 2223   4.338   0.951   9.528  0.0000  0.0000  0.0000
 2224OM     OM1 2224   4.273   0.787   0.109  0.0000  0.0000  0.0000
 2225OM     OM1 2225   4.442   0.708   9.532  0.0000  0.0000  0.0000
 2226OM     OM1 2226   6.670   8.730   0.245  0.0000  0.0000  0.0000
 2227OM     OM1 2227   6.842   8.525   0.194  0.0000  0.0000  0.0000
 2228OM     OM1 2228   6.921   8.728   0.336  0.0000  0.0000  0.0000
 2229OM     OM1 2229   6.860   8.764   0.083  0.0000  0.0000  0.0000
 2230OM     OM1 2230   5.899   0.464   8.802  0.0000  0.0000  0.0000
 2231OM     OM1 2231   6.018   0.700   8.754  0.0000  0.0000  0.0000
 2232OM     OM1 2232   5.906   0.567   8.567  0.0000  0.0000  0.0000
 2233OM     OM1 2233   8.764   4.493   8.356  0.0000  0.0000  0.0000
 2234OM     OM1 2234   9.016   4.446   8.300  0.0000  0.0000  0.0000
 2235OM     OM1 2235   0.268   0.114   0.119  0.0000  0.0000  0.0000
 2236OM     OM1 2236   0.289   9.475   0.196  0.0000  0.0000  0.0000
 2237OM     OM1 2237   0.452   0.023   0.322  0.0000  0.0000  0.0000
 2238OM     OM1 2238   0.489   0.001   0.063  0.0000  0.0000  0.0000
 2239OM     OM1 2239   6.538   7.219   8.432  0.0000  0.0000  0.0000
 2240OM     OM1 2240   6.619   7.450   8.324  0.0000  0.0000  0.0000
 2241OM     OM1 2241   6.651   7.406   8.572  0.0000  0.0000  0.0000
 2242OM     OM1 2242   7.290   4.319   0.703  0.0000  0.0000  0.0000
 2243OM     OM1 2243   7.495   4.299   0.851  0.0000  0.0000  0.0000
 2244OM     OM1 2244   7.459   4.525   0.701  0.0000  0.0000  0.0000
 2245OM     OM1 2245   7.537   4.306   0.598  0.0000  0.0000  0.0000
 2246OM     OM1 2246   6.335   5.305   8.390  0.0000  0.0000  0.0000
 2247OM     OM1 2247   6.247   5.280   8.640  0.0000  0.0000  0.0000
 2248OM     OM1 2248   6.495   5.224   8.582  0.0000  0.0000  0.0000
 2249OM     OM1 2249   6.395   5.480   8.562  0.0000  0.0000  0.0000
 2250OM     OM1 2250   8.825   3.414   0.007  0.0000  0.0000  0.0000
 2251OM     OM1 2251   8.603   3.305   9.525  0.0000  0.0000  0.0000
 2252OM     OM1 2252   8.631   3.565   9.496  0.0000  0.0000  0.0000
 2253OM     OM1 2253   8.327   6.576   1.071  0.0000  0.0000  0.0000
 2254OM     OM1 2254   8.308   6.584   0.815  0.0000  0.0000  0.0000
 2255OM     OM1 2255   8.398   6.365   0.936  0.0000  0.0000  0.0000
 2256OM     OM1 2256   8.151   6.420   0.963  0.0000  0.0000  0.0000
 2257OM     OM1 2257   7.192   7.363   9.090  0.0000  0.0000  0.0000
 2258OM     OM1 2258   7.419   7.231   9.027  0.0000  0.0000  0.0000
 2259OM     OM1 2259   7.285   7.361   8.844  0.0000  0.0000  0.0000
 2260OM     OM1 2260   7.415   7.485   9.037  0.0000  0.0000  0.0000
 2261OM     OM1 2261   1.896   5.218   1.009  0.0000  0.0000  0.0000
 2262OM     OM1 2262   1.968   5.338   0.791  0.0000  0.0000  0.0000
 2263OM     OM1 2263   1.732   5.237   0.795  0.0000  0.0000  0.0000
 2264OM     OM1 2264   1.938   5.078   0.794  0.0000  0.0000  0.0000
 2265OM     OM1 2265   2.011   9.124   0.470  0.0000  0.0000  0.0000
 2266OM     OM1 2266   2.092   9.166   0.723  0.0000  0.0000  0.0000
 2267OM     OM1 2267   2.258   9.089   0.536  0.0000  0.0000  0.0000
 2268OM     OM1 2268   2.168   9.328   0.526  0.0000  0.0000  0.0000
 2269OM     OM1 2269   1.596   1.600   0.145  0.0000  0.0000  0.0000
 2270OM     OM1 2270   1.551   1.351   0.196  0.0000  0.0000  0.0000
 2271OM     OM1 2271   1.557   1.235   0.428  0.0000  0.0000  0.0000
 2272OM     OM1 2272   1.689   1.137   0.207  0.0000  0.0000  0.0000
 2273OM     OM1 2273   9.505   7.187   0.032  0.0000  0.0000  0.0000
 2274OM     OM1 2274   9.560   7.417   9.515  0.0000  0.0000  0.0000
 2275OM     OM1 2275   9.434   7.419   0.131  0.0000  0.0000  0.0000
 2276OM     OM1 2276   0.763   3.718   9.281  0.0000  0.0000  0.0000
 2277OM     OM1 2277   0.718   3.908   9.109  0.0000  0.0000  0.0000
 2278OM     OM1 2278   0.628   3.670   9.060  0.0000  0.0000  0.0000
 2279OM     OM1 2279   0.889   3.725   9.051  0.0000  0.0000  0.0000
 2280OM     OM1 2280   1.406   7.185   8.762  0.0000  0.0000  0.0000
 2281OM     OM1 2281   1.556   7.354   8.874  0.0000  0.0000  0.0000
 2282OM     OM1 2282   1.462   7.152   9.015  0.0000  0.0000  0.0000
 2283OM     OM1 2283   1.302   7.358   8.921  0.0000  0.0000  0.0000
 2284OM     OM1 2284   1.298   0.767   1.009  0.0000  0.0000  0.0000
 2285OM     OM1 2285   1.315   0.527   1.097  0.0000  0.0000  0.0000
 2286OM     OM1 2286   1.535   0.615   0.994  0.0000  0.0000  0.0000
 2287OM     OM1 2287   1.341   0.576   0.839  0.0000  0.0000  0.0000
 2288OM     OM1 2288   5.848   6.238   9.044  0.0000  0.0000  0.0000
 2289OM     OM1 2289   5.753   6.299   8.802  0.0000  0.0000  0.0000
 2290OM     OM1 2290   5.761   6.471   9.004  0.0000  0.0000  0.0000
 2291OM     OM1 2291   0.766   2.741   9.027  0.0000  0.0000  0.0000
 2292OM     OM1 2292   0.925   2.928   8.982  0.0000  0.0000  0.0000
 2293OM     OM1 2293   0.911   2.828   9.226  0.0000  0.0000  0.0000
 2294OM     OM1 2294   0.717   2.977   9.131  0.0000  0.0000  0.0000
 2295OM     OM1 2295   4.270   9.136   8.438  0.0000  0.0000  0.0000
 2296OM     OM1 2296   5.069   1.603   1.197  0.0000  0.0000  0.0000
 2297OM     OM1 2297   5.022   1.347   1.284  0.0000  0.0000  0.0000
 2298OM     OM1 2298   4.842   1.532   1.288  0.0000  0.0000  0.0000
 2299OM     OM1 2299   2.252   8.584   8.328  0.0000  0.0000  0.0000
 2300OM     OM1 2300   3.808   6.605   0.064  0.0000  0.0000  0.0000
 2301OM     OM1 2301   3.786   6.858   0.144  0.0000  0.0000  0.0000
 2302OM     OM1 2302   4.023   6.740   0.122  0.0000  0.0000  0.0000
 2303OM     OM1 2303   3.859   6.678   0.312  0.0000  0.0000  0.0000
 2304OM     OM1 2304   0.336   3.989   8.598  0.0000  0.0000  0.0000
 2305OM     OM1 2305   7.875   5.594   0.844  0.0000  0.0000  0.0000
 2306OM     OM1 2306   7.958   5.830   0.859  0.0000  0.0000  0.0000
 2307OM     OM1 2307   7.749   5.776   0.707  0.0000  0.0000  0.0000
 2308OM     OM1 2308   7.984   5.703   0.626  0.0000  0.0000  0.0000
 2309OM     OM1 2309   0.202   7.539   0.438  0.0000  0.0000  0.0000
 2310OM     OM1 2310   0.221   7.271   0.415  0.0000  0.0000  0.0000
 2311OM     OM1 2311   0.022   7.410   0.307  0.0000  0.0000  0.0000
 2312OM     OM1 2312   0.043   7.387   0.568  0.0000  0.0000  0.0000
 2313OM     OM1 2313   0.146   5.167   1.091  0.0000  0.0000  0.0000
 2314OM     OM1 2314   0.304   5.293   0.933  0.0000  0.0000  0.0000
 2315OM     OM1 2315   0.141   5.117   0.831  0.0000  0.0000  0.0000
 2316OM     OM1 2316   0.354   5.046   0.979  0.0000  0.0000  0.0000
 2317OM     OM1 2317   7.001   5.929   0.050  0.0000  0.0000  0.0000
 2318OM     OM1 2318   6.805   5.984   9.482  0.0000  0.0000  0.0000
 2319OM     OM1 2319   6.972   5.795   9.433  0.0000  0.0000  0.0000
 2320OM     OM1 2320   6.793   5.770   0.018  0.0000  0.0000  0.0000
 2321OM     OM1 2321   2.673   0.467   0.110  0.0000  0.0000  0.0000
 2322OM     OM1 2322   2.585   0.488   0.358  0.0000  0.0000  0.0000
 2323OM     OM1 2323   2.701   0.274   0.290  0.0000  0.0000  0.0000
 2324OM     OM1 2324   3.588   8.330   1.426  0.0000  0.0000  0.0000
 2325OM     OM1 2325   3.702   8.463   1.241  0.0000  0.0000  0.0000
 2326OM     OM1 2326   2.840   8.895   0.865  0.0000  0.0000  0.0000
 2327OM     OM1 2327   2.672   8.975   1.058  0.0000  0.0000  0.0000
 2328OM     OM1 2328   2.859   8.809   1.116  0.0000  0.0000  0.0000
 2329OM     OM1 2329   2.925   9.051   1.047  0.0000  0.0000  0.0000
 2330OM     OM1 2330   0.219   7.358   8.459  0.0000  0.0000  0.0000
 2331OM     OM1 2331   0.318   7.154   8.571  0.0000  0.0000  0.0000
 2332OM     OM1 2332   0.420   7.470   8.343  0.0000  0.0000  0.0000
 2333OM     OM1 2333   2.557   7.031   0.279  0.0000  0.0000  0.0000
 2334OM     OM1 2334   2.522   7.282   0.248  0.0000  0.0000  0.0000
 2335OM     OM1 2335   2.364   7.146   0.409  0.0000  0.0000  0.0000
 2336OM     OM1 2336   2.611   7.194   0.481  0.0000  0.0000  0.0000
 2337OM     OM1 2337   8.532   1.961   0.496  0.0000  0.0000  0.0000
 2338OM     OM1 2338   8.970   1.752   0.373  0.0000  0.0000  0.0000
 2339OM     OM1 2339   8.603   1.832   0.705  0.0000  0.0000  0.0000
 2340OM     OM1 2340   8.779   1.831   0.514  0.0000  0.0000  0.0000
 2341OM     OM1 2341   8.927   4.758   8.997  0.0000  0.0000  0.0000
 2342OM     OM1 2342   8.828   4.554   8.595  0.0000  0.0000  0.0000
 2343OM     OM1 2343   8.973   4.726   8.742  0.0000  0.0000  0.0000
 2344OM     OM1 2344   1.255   4.479   9.354  0.0000  0.0000  0.0000
 2345OM     OM1 2345   1.126   4.502   9.583  0.0000  0.0000  0.0000
 2346OM     OM1 2346   1.111   4.699   9.426  0.0000  0.0000  0.0000
 2347OM     OM1 2347   1.337   4.655   9.525  0.0000  0.0000  0.0000
 2348OM     OM1 2348   4.940   6.030   8.656  0.0000  0.0000  0.0000
 2349OM     OM1 2349   5.103   5.959   8.454  0.0000  0.0000  0.0000
 2350OM     OM1 2350   4.229   9.048   0.816  0.0000  0.0000  0.0000
 2351OM     OM1 2351   4.009   9.002   0.671  0.0000  0.0000  0.0000
 2352OM     OM1 2352   4.208   9.298   0.862  0.0000  0.0000  0.0000
 2353OM     OM1 2353   4.209   9.143   0.579  0.0000  0.0000  0.0000
 2354OM     OM1 2354   6.927   3.623   0.729  0.0000  0.0000  0.0000
 2355OM     OM1 2355   7.110   3.769   0.631  0.0000  0.0000  0.0000
 2356OM     OM1 2356   6.880   3.746   0.498  0.0000  0.0000  0.0000
 2357OM     OM1 2357   7.054   3.545   0.516  0.0000  0.0000  0.0000
 2358OM     OM1 2358   9.593   3.278   9.281  0.0000  0.0000  0.0000
 2359OM     OM1 2359   0.136   3.486   9.185  0.0000  0.0000  0.0000
 2360OM     OM1 2360   9.521   3.410   9.070  0.0000  0.0000  0.0000
 2361OM     OM1 2361   9.505   3.530   9.295  0.0000  0.0000  0.0000
 2362OM     OM1 2362   0.548   5.386   0.937  0.0000  0.0000  0.0000
 2363OM     OM1 2363   0.774   5.251   0.959  0.0000  0.0000  0.0000
 2364OM     OM1 2364   0.722   5.418   0.752  0.0000  0.0000  0.0000
 2365OM     OM1 2365   0.776   5.504   0.994  0.0000  0.0000  0.0000
 2366OM     OM1 2366   0.240   5.557   0.585  0.0000  0.0000  0.0000
 2367OM     OM1 2367   0.097   5.560   0.814  0.0000  0.0000  0.0000
 2368OM     OM1 2368   0.255   5.755   0.750  0.0000  0.0000  0.0000
 2369OM     OM1 2369   0.352   5.520   0.819  0.0000  0.0000  0.0000
 2370OM     OM1 2370   1.233   0.834   9.543  0.0000  0.0000  0.0000
 2371OM     OM1 2371   1.371   1.054   9.462  0.0000  0.0000  0.0000
 2372OM     OM1 2372   1.113   1.049   9.445  0.0000  0.0000  0.0000
 2373OM     OM1 2373   1.238   1.044   0.076  0.0000  0.0000  0.0000
 2374OM     OM1 2374   4.219   0.485   0.415  0.0000  0.0000  0.0000
 2375OM     OM1 2375   4.358   0.440   0.201  0.0000  0.0000  0.0000
 2376OM     OM1 2376   4.121   0.324   0.218  0.0000  0.0000  0.0000
 2377OM     OM1 2377   4.138   0.585   0.200  0.0000  0.0000  0.0000
 2378OM     OM1 2378   4.382   5.794   0.019  0.0000  0.0000  0.0000
 2379OM     OM1 2379   4.292   5.945   9.416  0.0000  0.0000  0.0000
 2380OM     OM1 2380   4.417   6.049   0.005  0.0000  0.0000  0.0000
 2381OM     OM1 2381   4.547   5.888   9.446  0.0000  0.0000  0.0000
 2382OM     OM1 2382   0.564   8.232   1.055  0.0000  0.0000  0.0000
 2383OM     OM1 2383   0.303   8.234   1.051  0.0000  0.0000  0.0000
 2384OM     OM1 2384   0.437   8.066   0.904  0.0000  0.0000  0.0000
 2385OM     OM1 2385   0.440   8.316   0.840  0.0000  0.0000  0.0000
 2386OM     OM1 2386   1.226   5.976   8.923  0.0000  0.0000  0.0000
 2387OM     OM1 2387   1.061   6.165   9.018  0.0000  0.0000  0.0000
 2388OM     OM1 2388   1.133   6.157   8.765  0.0000  0.0000  0.0000
 2389OM     OM1 2389   0.975   5.972   8.863  0.0000  0.0000  0.0000
 2390OM     OM1 2390   0.802   0.780   0.212  0.0000  0.0000  0.0000
 2391OM     OM1 2391   0.842   0.976   0.055  0.0000  0.0000  0.0000
 2392OM     OM1 2392   0.802   0.726   9.564  0.0000  0.0000  0.0000
 2393OM     OM1 2393   1.026   0.793   0.085  0.0000  0.0000  0.0000
 2394OM     OM1 2394   4.574   5.875   0.162  0.0000  0.0000  0.0000
 2395OM     OM1 2395   4.529   5.615   0.145  0.0000  0.0000  0.0000
 2396OM     OM1 2396   4.375   5.777   0.285  0.0000  0.0000  0.0000
 2397OM     OM1 2397   4.554   5.358   0.217  0.0000  0.0000  0.0000
 2398OM     OM1 2398   1.096   8.792   0.503  0.0000  0.0000  0.0000
 2399OM     OM1 2399   0.932   8.937   0.379  0.0000  0.0000  0.0000
 2400OM     OM1 2400   1.168   9.035   0.414  0.0000  0.0000  0.0000
 2401OM     OM1 2401   1.072   8.564   0.389  0.0000  0.0000  0.0000
 2402OM     OM1 2402   4.055   7.675   9.359  0.0000  0.0000  0.0000
 2403OM     OM1 2403   4.009   7.649   0.017  0.0000  0.0000  0.0000
 2404OM     OM1 2404   3.974   7.874   9.499  0.0000  0.0000  0.0000
 2405OM     OM1 2405   3.812   7.675   9.444  0.0000  0.0000  0.0000
 2406OM     OM1 2406   2.978   1.274   0.813  0.0000  0.0000  0.0000
 2407OM     OM1 2407   3.053   1.518   0.784  0.0000  0.0000  0.0000
 2408OM     OM1 2408   2.811   1.461   0.825  0.0000  0.0000  0.0000
 2409OM     OM1 2409   2.996   1.417   1.025  0.0000  0.0000  0.0000
 2410OM     OM1 2410   4.996   7.306   9.065  0.0000  0.0000  0.0000
 2411OM     OM1 2411   4.967   7.332   9.326  0.0000  0.0000  0.0000
 2412OM     OM1 2412   5.184   7.224   9.218  0.0000  0.0000  0.0000
 2413OM     OM1 2413   6.529   3.014   0.108  0.0000  0.0000  0.0000
 2414OM     OM1 2414   6.766   3.093   0.147  0.0000  0.0000  0.0000
 2415OM     OM1 2415   6.711   2.825   0.146  0.0000  0.0000  0.0000
 2416OM     OM1 2416   6.705   2.964   9.531  0.0000  0.0000  0.0000
 2417OM     OM1 2417   3.093   6.976   0.938  0.0000  0.0000  0.0000
 2418OM     OM1 2418   3.009   6.816   1.136  0.0000  0.0000  0.0000
 2419OM     OM1 2419   3.187   7.003   1.180  0.0000  0.0000  0.0000
 2420OM     OM1 2420   2.941   7.063   1.147  0.0000  0.0000  0.0000
 2421OM     OM1 2421   4.346   3.997   1.112  0.0000  0.0000  0.0000
 2422OM     OM1 2422   4.100   4.019   1.042  0.0000  0.0000  0.0000
 2423OM     OM1 2423   4.268   3.914   0.870  0.0000  0.0000  0.0000
 2424OM     OM1 2424   4.290   4.169   0.927  0.0000  0.0000  0.0000
 2425OM     OM1 2425   0.594   0.439   9.003  0.0000  0.0000  0.0000
 2426OM     OM1 2426   0.851   0.428   8.959  0.0000  0.0000  0.0000
 2427OM     OM1 2427   0.684   0.257   8.855  0.0000  0.0000  0.0000
 2428OM     OM1 2428   0.686   0.500   8.762  0.0000  0.0000  0.0000
 2429OM     OM1 2429   8.244   3.766   8.271  0.0000  0.0000  0.0000
 2430OM     OM1 2430   8.428   3.583   8.280  0.0000  0.0000  0.0000
 2431OM     OM1 2431   8.808   7.014   8.240  0.0000  0.0000  0.0000
 2432OM     OM1 2432   9.140   7.353   8.301  0.0000  0.0000  0.0000
 2433OM     OM1 2433   9.044   7.131   8.221  0.0000  0.0000  0.0000
 2434OM     OM1 2434   2.564   5.895   0.051  0.0000  0.0000  0.0000
 2435OM     OM1 2435   2.501   6.101   0.216  0.0000  0.0000  0.0000
 2436OM     OM1 2436   2.599   6.145   9.588  0.0000  0.0000  0.0000
 2437OM     OM1 2437   2.364   6.050   9.597  0.0000  0.0000  0.0000
 2438OM     OM1 2438   4.093   3.115   9.496  0.0000  0.0000  0.0000
 2439OM     OM1 2439   4.118   3.025   0.137  0.0000  0.0000  0.0000
 2440OM     OM1 2440   3.891   2.990   0.028  0.0000  0.0000  0.0000
 2441OM     OM1 2441   4.117   2.864   9.557  0.0000  0.0000  0.0000
 2442OM     OM1 2442   2.329   2.731   1.116  0.0000  0.0000  0.0000
 2443OM     OM1 2443   2.178   2.925   1.212  0.0000  0.0000  0.0000
 2444OM     OM1 2444   2.158   2.827   0.957  0.0000  0.0000  0.0000
 2445OM     OM1 2445   2.067   2.699   1.161  0.0000  0.0000  0.0000
 2446OM     OM1 2446   2.586   5.462   0.888  0.0000  0.0000  0.0000
 2447OM     OM1 2447   2.624   5.667   0.723  0.0000  0.0000  0.0000
 2448OM     OM1 2448   2.422   5.511   0.690  0.0000  0.0000  0.0000
 2449OM     OM1 2449   2.429   5.673   0.894  0.0000  0.0000  0.0000
 2450OM     OM1 2450   1.720   3.170   1.119  0.0000  0.0000  0.0000
 2451OM     OM1 2451   1.506   3.280   1.225  0.0000  0.0000  0.0000
 2452OM     OM1 2452   1.726   3.429   1.187  0.0000  0.0000  0.0000
 2453OM     OM1 2453   8.218   0.197   1.064  0.0000  0.0000  0.0000
 2454OM     OM1 2454   8.312   0.401   0.916  0.0000  0.0000  0.0000
 2455OM     OM1 2455   8.454   0.309   1.112  0.0000  0.0000  0.0000
 2456OM     OM1 2456   0.630   0.892   8.289  0.0000  0.0000  0.0000
 2457OM     OM1 2457   0.672   0.636   8.277  0.0000  0.0000  0.0000
 2458OM     OM1 2458   4.035   4.514   8.915  0.0000  0.0000  0.0000
 2459OM     OM1 2459   4.170   4.728   9.000  0.0000  0.0000  0.0000
 2460OM     OM1 2460   4.239   4.598   8.783  0.0000  0.0000  0.0000
 2461OM     OM1 2461   4.274   4.487   9.016  0.0000  0.0000  0.0000
 2462OM     OM1 2462   3.850   3.655   1.300  0.0000  0.0000  0.0000
 2463OM     OM1 2463   3.662   3.479   1.307  0.0000  0.0000  0.0000
 2464OM     OM1 2464   0.175   6.868   0.726  0.0000  0.0000  0.0000
 2465OM     OM1 2465   0.158   6.683   0.913  0.0000  0.0000  0.0000
 2466OM     OM1 2466   0.012   6.661   0.708  0.0000  0.0000  0.0000
 2467OM     OM1 2467   9.576   6.865   0.880  0.0000  0.0000  0.0000
 2468OM     OM1 2468   6.723   5.784   8.704  0.0000  0.0000  0.0000
 2469OM     OM1 2469   6.731   5.858   8.466  0.0000  0.0000  0.0000
 2470OM     OM1 2470   6.777   5.600   8.538  0.0000  0.0000  0.0000
 2471OM     OM1 2471   6.540   5.693   8.518  0.0000  0.0000  0.0000
 2472OM     OM1 2472   4.437   2.349   8.766  0.0000  0.0000  0.0000
 2473OM     OM1 2473   4.253   2.458   8.611  0.0000  0.0000  0.0000
 2474OM     OM1 2474   4.393   2.600   8.793  0.0000  0.0000  0.0000
 2475OM     OM1 2475   4.494   2.513   8.568  0.0000  0.0000  0.0000
 2476OM     OM1 2476   9.458   0.529   0.355  0.0000  0.0000  0.0000
 2477OM     OM1 2477   9.224   0.481   0.444  0.0000  0.0000  0.0000
 2478OM     OM1 2478   9.252   0.594   0.205  0.0000  0.0000  0.0000
 2479OM     OM1 2479   9.339   0.574   0.653  0.0000  0.0000  0.0000
 2480OM     OM1 2480   7.333   1.062   9.173  0.0000  0.0000  0.0000
 2481OM     OM1 2481   7.279   1.317   9.256  0.0000  0.0000  0.0000
 2482OM     OM1 2482   7.413   1.168   9.399  0.0000  0.0000  0.0000
 2483OM     OM1 2483   5.175   2.770   1.149  0.0000  0.0000  0.0000
 2484OM     OM1 2484   5.061   3.000   1.155  0.0000  0.0000  0.0000
 2485OM     OM1 2485   4.922   2.789   1.085  0.0000  0.0000  0.0000
 2486OM     OM1 2486   0.062   8.752   9.338  0.0000  0.0000  0.0000
 2487OM     OM1 2487   0.172   8.958   9.222  0.0000  0.0000  0.0000
 2488OM     OM1 2488   0.014   8.818   9.080  0.0000  0.0000  0.0000
 2489OM     OM1 2489   9.506   8.948   9.267  0.0000  0.0000  0.0000
 2490OM     OM1 2490   3.297   3.396   0.853  0.0000  0.0000  0.0000
 2491OM     OM1 2491   3.469   2.961   0.635  0.0000  0.0000  0.0000
 2492OM     OM1 2492   3.401   3.199   0.708  0.0000  0.0000  0.0000
 2493OM     OM1 2493   0.910   5.799   8.408  0.0000  0.0000  0.0000
 2494OM     OM1 2494   1.037   5.831   8.188  0.0000  0.0000  0.0000
 2495OM     OM1 2495   1.014   6.036   8.352  0.0000  0.0000  0.0000
 2496OM     OM1 2496   6.341   2.765   8.611  0.0000  0.0000  0.0000
 2497OM     OM1 2497   6.483   2.966   8.530  0.0000  0.0000  0.0000
 2498OM     OM1 2498   6.247   2.905   8.403  0.0000  0.0000  0.0000
 2499OM     OM1 2499   6.471   2.766   8.385  0.0000  0.0000  0.0000
 2500OM     OM1 2500   6.031   8.430   1.377  0.0000  0.0000  0.0000
 2501OM     OM1 2501   5.825   8.489   1.232  0.0000  0.0000  0.0000
 2502OM     OM1 2502   5.755   0.570   9.596  0.0000  0.0000  0.0000
 2503OM     OM1 2503   5.879   0.621   0.212  0.0000  0.0000  0.0000
 2504OM     OM1 2504   5.959   0.420   0.051  0.0000  0.0000  0.0000
 2505OM     OM1 2505   6.602   8.572   1.054  0.0000  0.0000  0.0000
 2506OM     OM1 2506   6.369   8.671   1.151  0.0000  0.0000  0.0000
 2507OM     OM1 2507   6.666   8.324   1.042  0.0000  0.0000  0.0000
 2508OM     OM1 2508   6.298   6.596   9.223  0.0000  0.0000  0.0000
 2509OM     OM1 2509   6.303   6.331   9.173  0.0000  0.0000  0.0000
 2510OM     OM1 2510   6.338   6.436   9.417  0.0000  0.0000  0.0000
 2511OM     OM1 2511   6.105   6.445   9.298  0.0000  0.0000  0.0000
 2512OM     OM1 2512   9.417   8.282   0.799  0.0000  0.0000  0.0000
 2513OM     OM1 2513   9.332   8.511   0.881  0.0000  0.0000  0.0000
 2514OM     OM1 2514   9.358   8.487   0.625  0.0000  0.0000  0.0000
 2515OM     OM1 2515   9.574   8.488   0.766  0.0000  0.0000  0.0000
 2516OM     OM1 2516   1.377   1.825   8.584  0.0000  0.0000  0.0000
 2517OM     OM1 2517   1.211   1.828   8.377  0.0000  0.0000  0.0000
 2518OM     OM1 2518   1.442   1.932   8.354  0.0000  0.0000  0.0000
 2519OM     OM1 2519   1.261   2.053   8.498  0.0000  0.0000  0.0000
 2520OM     OM1 2520   8.623   3.189   8.938  0.0000  0.0000  0.0000
 2521OM     OM1 2521   8.497   3.212   9.167  0.0000  0.0000  0.0000
 2522OM     OM1 2522   8.632   3.414   9.069  0.0000  0.0000  0.0000
 2523OM     OM1 2523   8.757   3.221   9.168  0.0000  0.0000  0.0000
 2524OM     OM1 2524   8.944   1.449   0.669  0.0000  0.0000  0.0000
 2525OM     OM1 2525   8.955   1.366   0.403  0.0000  0.0000  0.0000
 2526OM     OM1 2526   9.055   1.233   0.615  0.0000  0.0000  0.0000
 2527OM     OM1 2527   9.164   1.453   0.530  0.0000  0.0000  0.0000
 2528OM     OM1 2528   0.501   8.409   0.364  0.0000  0.0000  0.0000
 2529OM     OM1 2529   0.308   8.576   0.350  0.0000  0.0000  0.0000
 2530OM     OM1 2530   0.397   8.468   0.135  0.0000  0.0000  0.0000
 2531OM     OM1 2531   0.247   8.331   0.301  0.0000  0.0000  0.0000
 2532OM     OM1 2532   3.426   8.477   0.324  0.0000  0.0000  0.0000
 2533OM     OM1 2533   3.191   8.429   0.436  0.0000  0.0000  0.0000
 2534OM     OM1 2534   3.247   8.660   0.318  0.0000  0.0000  0.0000
 2535OM     OM1 2535   3.220   8.439   0.175  0.0000  0.0000  0.0000
 2536OM     OM1 2536   6.909   5.965   8.762  0.0000  0.0000  0.0000
 2537OM     OM1 2537   6.973   5.720   8.751  0.0000  0.0000  0.0000
 2538OM     OM1 2538   6.821   5.796   8.946  0.0000  0.0000  0.0000
 2539OM     OM1 2539   2.869   8.563   1.048  0.0000  0.0000  0.0000
 2540OM     OM1 2540   2.812   8.607   1.289  0.0000  0.0000  0.0000
 2541OM     OM1 2541   3.058   8.670   1.200  0.0000  0.0000  0.0000
 2542OM     OM1 2542   7.217   0.889   0.693  0.0000  0.0000  0.0000
 2543OM     OM1 2543   7.013   0.864   0.845  0.0000  0.0000  0.0000
 2544OM     OM1 2544   7.259   0.779   0.926  0.0000  0.0000  0.0000
 2545OM     OM1 2545   6.571   2.568   9.036  0.0000  0.0000  0.0000
 2546OM     OM1 2546   6.724   2.389   9.132  0.0000  0.0000  0.0000
 2547OM     OM1 2547   6.558   2.329   8.941  0.0000  0.0000  0.0000
 2548OM     OM1 2548   6.459   2.359   9.171  0.0000  0.0000  0.0000
 2549OM     OM1 2549   2.028   3.307   0.459  0.0000  0.0000  0.0000
 2550OM     OM1 2550   1.856   3.417   0.601  0.0000  0.0000  0.0000
 2551OM     OM1 2551   2.113   3.465   0.647  0.0000  0.0000  0.0000
 2552OM     OM1 2552   1.995   3.242   0.724  0.0000  0.0000  0.0000
 2553OM     OM1 2553   2.282   7.096   0.874  0.0000  0.0000  0.0000
 2554OM     OM1 2554   2.480   7.188   1.043  0.0000  0.0000  0.0000
 2555OM     OM1 2555   2.237   7.253   1.077  0.0000  0.0000  0.0000
 2556OM     OM1 2556   2.362   7.344   0.871  0.0000  0.0000  0.0000
 2557OM     OM1 2557   2.101   6.077   8.281  0.0000  0.0000  0.0000
 2558OM     OM1 2558   2.285   5.766   8.470  0.0000  0.0000  0.0000
 2559OM     OM1 2559   2.503   5.840   8.343  0.0000  0.0000  0.0000
 2560OM     OM1 2560   2.263   5.874   8.236  0.0000  0.0000  0.0000
 2561OM     OM1 2561   1.182   1.231   8.976  0.0000  0.0000  0.0000
 2562OM     OM1 2562   1.320   1.077   9.130  0.0000  0.0000  0.0000
 2563OM     OM1 2563   1.120   1.207   9.237  0.0000  0.0000  0.0000
 2564OM     OM1 2564   8.540   0.642   9.302  0.0000  0.0000  0.0000
 2565OM     OM1 2565   8.675   0.506   9.488  0.0000  0.0000  0.0000
 2566OM     OM1 2566   8.417   0.492   9.486  0.0000  0.0000  0.0000
 2567OM     OM1 2567   3.425   8.993   1.000  0.0000  0.0000  0.0000
 2568OM     OM1 2568   3.482   8.953   1.252  0.0000  0.0000  0.0000
 2569OM     OM1 2569   3.564   9.172   1.128  0.0000  0.0000  0.0000
 2570OM     OM1 2570   3.669   8.939   1.072  0.0000  0.0000  0.0000
 2571OM     OM1 2571   1.106   9.266   0.321  0.0000  0.0000  0.0000
 2572OM     OM1 2572   1.224   9.087   0.168  0.0000  0.0000  0.0000
 2573OM     OM1 2573   1.174   8.871   0.019  0.0000  0.0000  0.0000
 2574OM     OM1 2574   4.540   4.800   0.030  0.0000  0.0000  0.0000
 2575OM     OM1 2575   4.746   4.674   0.120  0.0000  0.0000  0.0000
 2576OM     OM1 2576   4.680   4.652   9.468  0.0000  0.0000  0.0000
 2577OM     OM1 2577   4.541   4.538   0.049  0.0000  0.0000  0.0000
 2578OM     OM1 2578   8.155   4.542   9.445  0.0000  0.0000  0.0000
 2579OM     OM1 2579   8.411   4.494   9.488  0.0000  0.0000  0.0000
 2580OM     OM1 2580   8.288   4.645   0.052  0.0000  0.0000  0.0000
 2581OM     OM1 2581   9.289   2.309   8.471  0.0000  0.0000  0.0000
 2582OM     OM1 2582   9.551   2.338   8.428  0.0000  0.0000  0.0000
 2583OM     OM1 2583   7.972   3.179   0.954  0.0000  0.0000  0.0000
 2584OM     OM1 2584   7.808   3.562   1.239  0.0000  0.0000  0.0000
 2585OM     OM1 2585   7.901   3.414   1.051  0.0000  0.0000  0.0000
 2586OM     OM1 2586   7.985   3.668   1.070  0.0000  0.0000  0.0000
 2587OM     OM1 2587   1.725   2.693   8.275  0.0000  0.0000  0.0000
 2588OM     OM1 2588   1.914   2.632   8.448  0.0000  0.0000  0.0000
 2589OM     OM1 2589   4.825   4.073   1.203  0.0000  0.0000  0.0000
 2590OM     OM1 2590   4.632   4.239   1.122  0.0000  0.0000  0.0000
 2591OM     OM1 2591   4.570   4.027   1.251  0.0000  0.0000  0.0000
 2592OM     OM1 2592   1.761   0.405   8.787  0.0000  0.0000  0.0000
 2593OM     OM1 2593   1.773   0.143   8.734  0.0000  0.0000  0.0000
 2594OM     OM1 2594   1.546   0.245   8.791  0.0000  0.0000  0.0000
 2595OM     OM1 2595   4.899   9.048   8.566  0.0000  0.0000  0.0000
 2596OM     OM1 2596   5.026   9.222   8.716  0.0000  0.0000  0.0000
 2597OM     OM1 2597   5.020   8.973   8.783  0.0000  0.0000  0.0000
 2598OM     OM1 2598   5.233   4.749   0.126  0.0000  0.0000  0.0000
 2599OM     OM1 2599   5.058   4.933   0.078  0.0000  0.0000  0.0000
 2600OM     OM1 2600   4.982   4.726   0.209  0.0000  0.0000  0.0000
 2601OM     OM1 2601   5.034   4.699   9.560  0.0000  0.0000  0.0000
 2602OM     OM1 2602   5.269   5.771   8.363  0.0000  0.0000  0.0000
 2603OM     OM1 2603   5.072   5.615   8.426  0.0000  0.0000  0.0000
 2604OM     OM1 2604   7.073   1.566   8.322  0.0000  0.0000  0.0000
 2605OM     OM1 2605   6.852   1.655   8.210  0.0000  0.0000  0.0000
 2606OM     OM1 2606   3.088   7.838   0.878  0.0000  0.0000  0.0000
 2607OM     OM1 2607   3.002   7.601   0.889  0.0000  0.0000  0.0000
 2608OM     OM1 2608   3.302   7.820   0.744  0.0000  0.0000  0.0000
 2609OM     OM1 2609   3.109   7.966   0.637  0.0000  0.0000  0.0000
 2610OM     OM1 2610   7.397   5.794   0.467  0.0000  0.0000  0.0000
 2611OM     OM1 2611   7.202   5.669   0.380  0.0000  0.0000  0.0000
 2612OM     OM1 2612   7.406   5.686   0.219  0.0000  0.0000  0.0000
 2613OM     OM1 2613   0.156   1.217   9.467  0.0000  0.0000  0.0000
 2614OM     OM1 2614   0.394   1.107   9.440  0.0000  0.0000  0.0000
 2615OM     OM1 2615   0.186   0.976   9.558  0.0000  0.0000  0.0000
 2616OM     OM1 2616   9.366   9.217   0.866  0.0000  0.0000  0.0000
 2617OM     OM1 2617   9.285   9.414   1.007  0.0000  0.0000  0.0000
 2618OM     OM1 2618   9.536   9.404   0.905  0.0000  0.0000  0.0000
 2619OM     OM1 2619   8.544   7.391   0.911  0.0000  0.0000  0.0000
 2620OM     OM1 2620   8.459   7.444   1.154  0.0000  0.0000  0.0000
 2621OM     OM1 2621   8.470   7.628   0.973  0.0000  0.0000  0.0000
 2622OM     OM1 2622   8.694   7.538   1.075  0.0000  0.0000  0.0000
 2623OM     OM1 2623   6.161   6.643   8.328  0.0000  0.0000  0.0000
 2624OM     OM1 2624   6.030   6.464   8.204  0.0000  0.0000  0.0000
 2625OM     OM1 2625   0.393   9.274   0.308  0.0000  0.0000  0.0000
 2626OM     OM1 2626   0.765   9.022   0.210  0.0000  0.0000  0.0000
 2627OM     OM1 2627   0.612   9.221   0.173  0.0000  0.0000  0.0000
 2628OM     OM1 2628   0.806   9.171   0.000  0.0000  0.0000  0.0000
 2629OM     OM1 2629   6.118   2.656   8.579  0.0000  0.0000  0.0000
 2630OM     OM1 2630   6.295   2.515   8.710  0.0000  0.0000  0.0000
 2631OM     OM1 2631   6.183   2.710   8.822  0.0000  0.0000  0.0000
 2632OM     OM1 2632   4.802   1.424   0.911  0.0000  0.0000  0.0000
 2633OM     OM1 2633   4.871   1.251   1.103  0.0000  0.0000  0.0000
 2634OM     OM1 2634   4.627   1.327   1.085  0.0000  0.0000  0.0000
 2635OM     OM1 2635   4.731   1.181   0.889  0.0000  0.0000  0.0000
 2636OM     OM1 2636   7.068   1.206   0.600  0.0000  0.0000  0.0000
 2637OM     OM1 2637   6.813   1.249   0.544  0.0000  0.0000  0.0000
 2638OM     OM1 2638   6.884   1.077   0.735  0.0000  0.0000  0.0000
 2639OM     OM1 2639   6.914   1.342   0.761  0.0000  0.0000  0.0000
 2640OM     OM1 2640   3.310   0.469   0.878  0.0000  0.0000  0.0000
 2641OM     OM1 2641   3.062   0.560   0.950  0.0000  0.0000  0.0000
 2642OM     OM1 2642   3.166   0.633   0.732  0.0000  0.0000  0.0000
 2643OM     OM1 2643   3.271   0.714   0.961  0.0000  0.0000  0.0000
 2644OM     OM1 2644   0.108   5.133   0.062  0.0000  0.0000  0.0000
 2645OM     OM1 2645   0.056   5.375   0.002  0.0000  0.0000  0.0000
 2646OM     OM1 2646   0.286   5.261   9.529  0.0000  0.0000  0.0000
 2647OM     OM1 2647   3.981   5.084   8.736  0.0000  0.0000  0.0000
 2648OM     OM1 2648   3.895   5.305   8.636  0.0000  0.0000  0.0000
 2649OM     OM1 2649   3.868   5.480   8.824  0.0000  0.0000  0.0000
 2650OM     OM1 2650   4.151   5.263   8.646  0.0000  0.0000  0.0000
 2651OM     OM1 2651   5.665   3.317   8.131  0.0000  0.0000  0.0000
 2652OM     OM1 2652   5.438   3.197   8.173  0.0000  0.0000  0.0000
 2653OM     OM1 2653   5.651   3.147   8.321  0.0000  0.0000  0.0000
 2654OM     OM1 2654   4.350   7.839   0.291  0.0000  0.0000  0.0000
 2655OM     OM1 2655   4.504   7.644   0.215  0.0000  0.0000  0.0000
 2656OM     OM1 2656   4.248   7.672   0.127  0.0000  0.0000  0.0000
 2657OM     OM1 2657   4.447   7.831   0.050  0.0000  0.0000  0.0000
 2658OM     OM1 2658   4.971   8.322   0.180  0.0000  0.0000  0.0000
 2659OM     OM1 2659   5.014   8.555   0.044  0.0000  0.0000  0.0000
 2660OM     OM1 2660   7.011   9.153   0.256  0.0000  0.0000  0.0000
 2661OM     OM1 2661   6.986   8.988   0.061  0.0000  0.0000  0.0000
 2662OM     OM1 2662   7.081   9.226   0.008  0.0000  0.0000  0.0000
 2663OM     OM1 2663   6.831   9.186   0.057  0.0000  0.0000  0.0000
 2664OM     OM1 2664   7.169   8.333   9.194  0.0000  0.0000  0.0000
 2665OM     OM1 2665   7.186   8.486   9.402  0.0000  0.0000  0.0000
 2666OM     OM1 2666   0.244   4.590   8.496  0.0000  0.0000  0.0000
 2667OM     OM1 2667   0.171   4.339   8.456  0.0000  0.0000  0.0000
 2668OM     OM1 2668   6.385   6.741   9.029  0.0000  0.0000  0.0000
 2669OM     OM1 2669   6.645   6.746   9.083  0.0000  0.0000  0.0000
 2670OM     OM1 2670   6.529   6.527   9.032  0.0000  0.0000  0.0000
 2671OM     OM1 2671   6.589   6.703   8.842  0.0000  0.0000  0.0000
 2672OM     OM1 2672   0.372   1.432   0.578  0.0000  0.0000  0.0000
 2673OM     OM1 2673   0.595   1.528   0.688  0.0000  0.0000  0.0000
 2674OM     OM1 2674   0.596   1.297   0.573  0.0000  0.0000  0.0000
 2675OM     OM1 2675   0.561   1.524   0.430  0.0000  0.0000  0.0000
 2676OM     OM1 2676   2.694   3.351   9.088  0.0000  0.0000  0.0000
 2677OM     OM1 2677   2.443   3.361   9.167  0.0000  0.0000  0.0000
 2678OM     OM1 2678   2.561   3.127   9.123  0.0000  0.0000  0.0000
 2679OM     OM1 2679   2.633   3.263   9.329  0.0000  0.0000  0.0000
 2680OM     OM1 2680   7.910   0.971   9.310  0.0000  0.0000  0.0000
 2681OM     OM1 2681   7.939   0.759   9.452  0.0000  0.0000  0.0000
 2682OM     OM1 2682   7.896   0.735   9.192  0.0000  0.0000  0.0000
 2683OM     OM1 2683   7.784   0.496   9.147  0.0000  0.0000  0.0000
 2684OM     OM1 2684   5.127   5.663   1.155  0.0000  0.0000  0.0000
 2685OM     OM1 2685   4.907   5.592   1.011  0.0000  0.0000  0.0000
 2686OM     OM1 2686   5.033   5.837   1.008  0.0000  0.0000  0.0000
 2687OM     OM1 2687   5.129   5.625   0.892  0.0000  0.0000  0.0000
 2688OM     OM1 2688   5.881   3.420   8.577  0.0000  0.0000  0.0000
 2689OM     OM1 2689   5.630   3.453   8.588  0.0000  0.0000  0.0000
 2690OM     OM1 2690   5.762   3.412   8.350  0.0000  0.0000  0.0000
 2691OM     OM1 2691   5.771   3.634   8.462  0.0000  0.0000  0.0000
 2692OM     OM1 2692   4.449   5.179   0.686  0.0000  0.0000  0.0000
 2693OM     OM1 2693   4.530   4.942   0.748  0.0000  0.0000  0.0000
 2694OM     OM1 2694   4.316   5.041   0.864  0.0000  0.0000  0.0000
 2695OM     OM1 2695   4.305   4.965   0.619  0.0000  0.0000  0.0000
 2696OM     OM1 2696   0.826   2.632   1.024  0.0000  0.0000  0.0000
 2697OM     OM1 2697   0.576   2.689   1.116  0.0000  0.0000  0.0000
 2698OM     OM1 2698   0.685   2.463   1.145  0.0000  0.0000  0.0000
 2699OM     OM1 2699   8.120   2.984   1.054  0.0000  0.0000  0.0000
 2700OM     OM1 2700   8.174   3.236   1.097  0.0000  0.0000  0.0000
 2701OM     OM1 2701   8.205   3.139   0.853  0.0000  0.0000  0.0000
 2702OM     OM1 2702   0.260   5.789   0.121  0.0000  0.0000  0.0000
 2703OM     OM1 2703   0.415   5.590   0.131  0.0000  0.0000  0.0000
 2704OM     OM1 2704   0.245   5.628   0.329  0.0000  0.0000  0.0000
 2705OM     OM1 2705   0.452   5.773   0.315  0.0000  0.0000  0.0000
 2706OM     OM1 2706   0.596   0.711   8.635  0.0000  0.0000  0.0000
 2707OM     OM1 2707   0.447   0.493   8.668  0.0000  0.0000  0.0000
 2708OM     OM1 2708   0.642   0.504   8.495  0.0000  0.0000  0.0000
 2709OM     OM1 2709   7.998   8.468   9.592  0.0000  0.0000  0.0000
 2710OM     OM1 2710   8.087   8.525   9.336  0.0000  0.0000  0.0000
 2711OM     OM1 2711   7.866   8.607   9.411  0.0000  0.0000  0.0000
 2712OM     OM1 2712   7.896   8.348   9.397  0.0000  0.0000  0.0000
 2713OM     OM1 2713   8.549   4.156   8.648  0.0000  0.0000  0.0000
 2714OM     OM1 2714   8.477   3.906   8.572  0.0000  0.0000  0.0000
 2715OM     OM1 2715   8.691   4.025   8.486  0.0000  0.0000  0.0000
 2716OM     OM1 2716   8.440   4.119   8.422  0.0000  0.0000  0.0000
 2717OM     OM1 2717   6.826   5.138   9.327  0.0000  0.0000  0.0000
 2718OM     OM1 2718   6.613   5.300   9.294  0.0000  0.0000  0.0000
 2719OM     OM1 2719   6.849   5.362   9.206  0.0000  0.0000  0.0000
 2720OM     OM1 2720   6.796   5.347   9.471  0.0000  0.0000  0.0000
 2721OM     OM1 2721   8.767   2.100   8.988  0.0000  0.0000  0.0000
 2722OM     OM1 2722   8.534   2.223   9.002  0.0000  0.0000  0.0000
 2723OM     OM1 2723   8.537   1.963   8.977  0.0000  0.0000  0.0000
 2724OM     OM1 2724   8.621   2.117   8.776  0.0000  0.0000  0.0000
 2725OM     OM1 2725   9.104   5.444   0.133  0.0000  0.0000  0.0000
 2726OM     OM1 2726   9.281   5.404   0.318  0.0000  0.0000  0.0000
 2727OM     OM1 2727   9.062   5.253   0.304  0.0000  0.0000  0.0000
 2728OM     OM1 2728   9.262   5.236   0.130  0.0000  0.0000  0.0000
 2729OM     OM1 2729   7.476   3.361   8.366  0.0000  0.0000  0.0000
 2730OM     OM1 2730   7.415   3.506   8.167  0.0000  0.0000  0.0000
 2731OM     OM1 2731   7.660   3.504   8.246  0.0000  0.0000  0.0000
 2732OM     OM1 2732   9.252   1.592   1.179  0.0000  0.0000  0.0000
 2733OM     OM1 2733   9.516   1.578   1.144  0.0000  0.0000  0.0000
 2734OM     OM1 2734   9.350   1.484   0.962  0.0000  0.0000  0.0000
 2735OM     OM1 2735   2.643   7.723   0.690  0.0000  0.0000  0.0000
 2736OM     OM1 2736   2.776   7.815   0.472  0.0000  0.0000  0.0000
 2737OM     OM1 2737   2.712   7.566   0.505  0.0000  0.0000  0.0000
 2738OM     OM1 2738   3.270   0.016   8.692  0.0000  0.0000  0.0000
 2739OM     OM1 2739   3.166   0.241   8.768  0.0000  0.0000  0.0000
 2740OM     OM1 2740   3.024   0.036   8.792  0.0000  0.0000  0.0000
 2741OM     OM1 2741   3.078   0.116   8.548  0.0000  0.0000  0.0000
 2742OM     OM1 2742   0.999   1.658   8.810  0.0000  0.0000  0.0000
 2743OM     OM1 2743   1.163   1.723   8.987  0.0000  0.0000  0.0000
 2744OM     OM1 2744   1.258   1.659   8.745  0.0000  0.0000  0.0000
 2745OM     OM1 2745   1.162   1.472   8.887  0.0000  0.0000  0.0000
 2746OM     OM1 2746   6.893   5.100   1.085  0.0000  0.0000  0.0000
 2747OM     OM1 2747   7.152   5.122   1.070  0.0000  0.0000  0.0000
 2748OM     OM1 2748   7.017   5.340   1.106  0.0000  0.0000  0.0000
 2749OM     OM1 2749   6.388   0.935   9.488  0.0000  0.0000  0.0000
 2750OM     OM1 2750   6.134   0.994   9.422  0.0000  0.0000  0.0000
 2751OM     OM1 2751   6.293   0.884   9.256  0.0000  0.0000  0.0000
 2752OM     OM1 2752   6.218   0.740   9.454  0.0000  0.0000  0.0000
 2753OM     OM1 2753   8.319   7.036   8.667  0.0000  0.0000  0.0000
 2754OM     OM1 2754   8.117   6.819   8.519  0.0000  0.0000  0.0000
 2755OM     OM1 2755   8.369   6.813   8.794  0.0000  0.0000  0.0000
 2756OM     OM1 2756   8.369   6.816   8.540  0.0000  0.0000  0.0000
 2757OM     OM1 2757   9.226   7.916   9.506  0.0000  0.0000  0.0000
 2758OM     OM1 2758   9.176   7.730   0.073  0.0000  0.0000  0.0000
 2759OM     OM1 2759   9.416   7.824   0.085  0.0000  0.0000  0.0000
 2760OM     OM1 2760   9.221   7.975   0.152  0.0000  0.0000  0.0000
 2761OM     OM1 2761   4.083   1.051   0.572  0.0000  0.0000  0.0000
 2762OM     OM1 2762   3.948   1.265   0.524  0.0000  0.0000  0.0000
 2763OM     OM1 2763   4.218   1.276   0.568  0.0000  0.0000  0.0000
 2764OM     OM1 2764   4.476   5.035   8.886  0.0000  0.0000  0.0000
 2765OM     OM1 2765   4.734   5.053   8.819  0.0000  0.0000  0.0000
 2766OM     OM1 2766   4.611   4.828   8.785  0.0000  0.0000  0.0000
 2767OM     OM1 2767   4.655   4.917   9.025  0.0000  0.0000  0.0000
 2768OM     OM1 2768   0.741   2.173   0.854  0.0000  0.0000  0.0000
 2769OM     OM1 2769   0.873   1.991   1.013  0.0000  0.0000  0.0000
 2770OM     OM1 2770   0.616   2.004   0.997  0.0000  0.0000  0.0000
 2771OM     OM1 2771   0.556   3.723   0.905  0.0000  0.0000  0.0000
 2772OM     OM1 2772   0.537   3.329   0.938  0.0000  0.0000  0.0000
 2773OM     OM1 2773   0.376   3.523   0.953  0.0000  0.0000  0.0000
 2774OM     OM1 2774   0.485   3.549   0.722  0.0000  0.0000  0.0000
 2775OM     OM1 2775   3.895   3.259   8.402  0.0000  0.0000  0.0000
 2776OM     OM1 2776   4.119   3.133   8.400  0.0000  0.0000  0.0000
 2777OM     OM1 2777   1.801   6.107   9.246  0.0000  0.0000  0.0000
 2778OM     OM1 2778   1.688   6.046   9.018  0.0000  0.0000  0.0000
 2779OM     OM1 2779   1.756   5.852   9.188  0.0000  0.0000  0.0000
 2780OM     OM1 2780   9.510   3.602   1.091  0.0000  0.0000  0.0000
 2781OM     OM1 2781   0.051   3.662   0.881  0.0000  0.0000  0.0000
 2782OM     OM1 2782   9.461   3.492   0.856  0.0000  0.0000  0.0000
 2783OM     OM1 2783   9.405   3.742   0.883  0.0000  0.0000  0.0000
 2784OM     OM1 2784   9.039   4.329   0.529  0.0000  0.0000  0.0000
 2785OM     OM1 2785   8.822   4.411   0.666  0.0000  0.0000  0.0000
 2786OM     OM1 2786   8.851   4.166   0.569  0.0000  0.0000  0.0000
 2787OM     OM1 2787   8.820   4.374   0.407  0.0000  0.0000  0.0000
 2788OM     OM1 2788   6.954   6.876   0.731  0.0000  0.0000  0.0000
 2789OM     OM1 2789   6.936   6.887   0.474  0.0000  0.0000  0.0000
 2790OM     OM1 2790   6.945   6.660   0.598  0.0000  0.0000  0.0000
 2791OM     OM1 2791   1.628   4.024   0.404  0.0000  0.0000  0.0000
 2792OM     OM1 2792   1.452   3.897   0.255  0.0000  0.0000  0.0000
 2793OM     OM1 2793   1.464   4.084   0.594  0.0000  0.0000  0.0000
 2794OM     OM1 2794   3.576   2.191   9.530  0.0000  0.0000  0.0000
 2795OM     OM1 2795   3.615   2.347   0.129  0.0000  0.0000  0.0000
 2796OM     OM1 2796   3.486   2.135   0.167  0.0000  0.0000  0.0000
 2797OM     OM1 2797   3.520   2.579   0.095  0.0000  0.0000  0.0000
 2798OM     OM1 2798   6.872   6.625   0.274  0.0000  0.0000  0.0000
 2799OM     OM1 2799   7.046   6.509   0.413  0.0000  0.0000  0.0000
 2800OM     OM1 2800   2.770   7.336   8.821  0.0000  0.0000  0.0000
 2801OM     OM1 2801   2.569   7.234   8.949  0.0000  0.0000  0.0000
 2802OM     OM1 2802   2.549   7.418   8.725  0.0000  0.0000  0.0000
 2803OM     OM1 2803   0.123   9.412   0.565  0.0000  0.0000  0.0000
 2804OM     OM1 2804   0.373   9.415   0.655  0.0000  0.0000  0.0000
 2805OM     OM1 2805   0.182   9.457   0.815  0.0000  0.0000  0.0000
 2806OM     OM1 2806   3.676   4.936   0.200  0.0000  0.0000  0.0000
 2807OM     OM1 2807   3.526   5.148   0.207  0.0000  0.0000  0.0000
 2808OM     OM1 2808   3.692   5.132   0.023  0.0000  0.0000  0.0000
 2809OM     OM1 2809   3.494   4.958   0.014  0.0000  0.0000  0.0000
 2810OM     OM1 2810   5.179   3.371   8.782  0.0000  0.0000  0.0000
 2811OM     OM1 2811   5.135   3.627   8.797  0.0000  0.0000  0.0000
 2812OM     OM1 2812   4.935   3.462   8.777  0.0000  0.0000  0.0000
 2813OM     OM1 2813   5.068   3.484   9.003  0.0000  0.0000  0.0000
 2814OM     OM1 2814   8.307   7.714   8.738  0.0000  0.0000  0.0000
 2815OM     OM1 2815   8.372   7.666   9.038  0.0000  0.0000  0.0000
 2816OM     OM1 2816   8.467   7.558   8.606  0.0000  0.0000  0.0000
 2817OM     OM1 2817   8.628   7.682   9.036  0.0000  0.0000  0.0000
 2818OM     OM1 2818   7.649   5.705   9.353  0.0000  0.0000  0.0000
 2819OM     OM1 2819   7.768   5.545   9.529  0.0000  0.0000  0.0000
 2820OM     OM1 2820   7.895   5.728   9.396  0.0000  0.0000  0.0000
 2821OM     OM1 2821   7.808   5.511   9.272  0.0000  0.0000  0.0000
 2822OM     OM1 2822   5.842   2.172   8.559  0.0000  0.0000  0.0000
 2823OM     OM1 2823   6.003   1.988   8.673  0.0000  0.0000  0.0000
 2824OM     OM1 2824   5.835   2.135   8.809  0.0000  0.0000  0.0000
 2825OM     OM1 2825   2.693   1.559   0.324  0.0000  0.0000  0.0000
 2826OM     OM1 2826   2.527   1.753   0.266  0.0000  0.0000  0.0000
 2827OM     OM1 2827   2.468   1.507   0.197  0.0000  0.0000  0.0000
 2828OM     OM1 2828   2.656   1.642   0.073  0.0000  0.0000  0.0000
 2829OM     OM1 2829   5.955   9.271   0.311  0.0000  0.0000  0.0000
 2830OM     OM1 2830   5.901   9.510   0.241  0.0000  0.0000  0.0000
 2831OM     OM1 2831   5.711   9.327   0.226  0.0000  0.0000  0.0000
 2832OM     OM1 2832   9.100   8.616   0.956  0.0000  0.0000  0.0000
 2833OM     OM1 2833   8.999   8.834   0.836  0.0000  0.0000  0.0000
 2834OM     OM1 2834   4.538   0.145   9.426  0.0000  0.0000  0.0000
 2835OM     OM1 2835   4.770   0.016   9.499  0.0000  0.0000  0.0000
 2836OM     OM1 2836   4.733   0.278   9.520  0.0000  0.0000  0.0000
 2837OM     OM1 2837   6.544   6.261   1.167  0.0000  0.0000  0.0000
 2838OM     OM1 2838   6.650   6.445   1.018  0.0000  0.0000  0.0000
 2839OM     OM1 2839   6.746   6.377   1.254  0.0000  0.0000  0.0000
 2840OM     OM1 2840   8.261   0.523   0.496  0.0000  0.0000  0.0000
 2841OM     OM1 2841   8.526   0.502   0.470  0.0000  0.0000  0.0000
 2842OM     OM1 2842   8.423   0.723   0.555  0.0000  0.0000  0.0000
 2843OM     OM1 2843   8.418   0.511   0.705  0.0000  0.0000  0.0000
 2844OM     OM1 2844   4.572   7.443   0.371  0.0000  0.0000  0.0000
 2845OM     OM1 2845   4.493   7.190   0.338  0.0000  0.0000  0.0000
 2846OM     OM1 2846   4.333   7.357   0.463  0.0000  0.0000  0.0000
 2847OM     OM1 2847   4.381   7.391   0.218  0.0000  0.0000  0.0000
 2848OM     OM1 2848   1.526   4.062   9.559  0.0000  0.0000  0.0000
 2849OM     OM1 2849   1.587   4.251   9.398  0.0000  0.0000  0.0000
 2850OM     OM1 2850   1.773   4.109   9.508  0.0000  0.0000  0.0000
 2851OM     OM1 2851   1.441   2.650   8.794  0.0000  0.0000  0.0000
 2852OM     OM1 2852   1.525   2.719   8.565  0.0000  0.0000  0.0000
 2853OM     OM1 2853   1.655   2.533   8.700  0.0000  0.0000  0.0000
 2854OM     OM1 2854   0.295   1.980   0.713  0.0000  0.0000  0.0000
 2855OM     OM1 2855   0.143   2.128   0.553  0.0000  0.0000  0.0000
 2856OM     OM1 2856   0.219   1.891   0.492  0.0000  0.0000  0.0000
 2857OM     OM1 2857   8.259   2.152   1.070  0.0000  0.0000  0.0000
 2858OM     OM1 2858   6.469   2.866   0.628  0.0000  0.0000  0.0000
 2859OM     OM1 2859   6.243   2.731   0.665  0.0000  0.0000  0.0000
 2860OM     OM1 2860   6.387   2.797   0.869  0.0000  0.0000  0.0000
 2861OM     OM1 2861   6.483   2.730   0.420  0.0000  0.0000  0.0000
 2862OM     OM1 2862   9.255   6.828   8.822  0.0000  0.0000  0.0000
 2863OM     OM1 2863   9.240   6.633   8.668  0.0000  0.0000  0.0000
 2864OM     OM1 2864   1.614   3.420   0.690  0.0000  0.0000  0.0000
 2865OM     OM1 2865   1.637   3.362   0.447  0.0000  0.0000  0.0000
 2866OM     OM1 2866   1.650   3.147   0.299  0.0000  0.0000  0.0000
 2867OM     OM1 2867   4.598   2.154   8.844  0.0000  0.0000  0.0000
 2868OM     OM1 2868   4.835   2.220   8.749  0.0000  0.0000  0.0000
 2869OM     OM1 2869   4.733   1.998   8.688  0.0000  0.0000  0.0000
 2870OM     OM1 2870   4.813   2.041   8.945  0.0000  0.0000  0.0000
 2871OM     OM1 2871   7.311   4.800   0.295  0.0000  0.0000  0.0000
 2872OM     OM1 2872   7.424   4.668   0.482  0.0000  0.0000  0.0000
 2873OM     OM1 2873   7.351   4.538   0.263  0.0000  0.0000  0.0000
 2874OM     OM1 2874   1.983   4.139   1.020  0.0000  0.0000  0.0000
 2875OM     OM1 2875   1.726   4.197   1.016  0.0000  0.0000  0.0000
 2876OM     OM1 2876   1.800   3.948   1.073  0.0000  0.0000  0.0000
 2877OM     OM1 2877   1.703   0.809   0.317  0.0000  0.0000  0.0000
 2878OM     OM1 2878   1.645   0.918   0.082  0.0000  0.0000  0.0000
 2879OM     OM1 2879   1.793   0.706   0.097  0.0000  0.0000  0.0000
 2880OM     OM1 2880   1.789   0.324   0.635  0.0000  0.0000  0.0000
 2881OM     OM1 2881   1.983   0.408   0.492  0.0000  0.0000  0.0000
 2882OM     OM1 2882   1.867   0.191   0.409  0.0000  0.0000  0.0000
 2883OM     OM1 2883   2.011   0.198   0.635  0.0000  0.0000  0.0000
 2884OM     OM1 2884   2.652   5.651   8.263  0.0000  0.0000  0.0000
 2885OM     OM1 2885   2.738   5.802   8.452  0.0000  0.0000  0.0000
 2886OM     OM1 2886   1.225   7.603   8.968  0.0000  0.0000  0.0000
 2887OM     OM1 2887   1.270   7.789   9.148  0.0000  0.0000  0.0000
 2888OM     OM1 2888   1.379   7.812   8.923  0.0000  0.0000  0.0000
 2889OM     OM1 2889   9.048   1.571   8.361  0.0000  0.0000  0.0000
 2890OM     OM1 2890   9.291   1.629   8.420  0.0000  0.0000  0.0000
 2891OM     OM1 2891   9.095   1.788   8.501  0.0000  0.0000  0.0000
 2892OM     OM1 2892   3.707   7.253   0.965  0.0000  0.0000  0.0000
 2893OM     OM1 2893   3.718   7.078   1.149  0.0000  0.0000  0.0000
 2894OM     OM1 2894   3.697   6.773   0.961  0.0000  0.0000  0.0000
 2895OM     OM1 2895   3.765   7.009   0.897  0.0000  0.0000  0.0000
 2896OM     OM1 2896   6.590   4.970   8.631  0.0000  0.0000  0.0000
 2897OM     OM1 2897   6.646   4.722   8.736  0.0000  0.0000  0.0000
 2898OM     OM1 2898   6.493   4.746   8.534  0.0000  0.0000  0.0000
 2899OM     OM1 2899   6.748   4.794   8.513  0.0000  0.0000  0.0000
 2900OM     OM1 2900   7.717   0.955   0.091  0.0000  0.0000  0.0000
 2901OM     OM1 2901   7.769   0.713   0.059  0.0000  0.0000  0.0000
 2902OM     OM1 2902   7.767   0.806   0.304  0.0000  0.0000  0.0000
 2903OM     OM1 2903   9.225   4.100   0.113  0.0000  0.0000  0.0000
 2904OM     OM1 2904   8.968   4.059   0.118  0.0000  0.0000  0.0000
 2905OM     OM1 2905   9.079   4.231   0.288  0.0000  0.0000  0.0000
 2906OM     OM1 2906   0.548   7.440   8.561  0.0000  0.0000  0.0000
 2907OM     OM1 2907   0.819   7.502   8.877  0.0000  0.0000  0.0000
 2908OM     OM1 2908   0.573   7.544   8.803  0.0000  0.0000  0.0000
 2909OM     OM1 2909   4.297   8.783   9.402  0.0000  0.0000  0.0000
 2910OM     OM1 2910   4.160   8.581   9.482  0.0000  0.0000  0.0000
 2911OM     OM1 2911   4.041   8.804   9.451  0.0000  0.0000  0.0000
 2912OM     OM1 2912   0.404   2.081   1.130  0.0000  0.0000  0.0000
 2913OM     OM1 2913   0.632   2.197   1.172  0.0000  0.0000  0.0000
 2914OM     OM1 2914   0.589   1.945   1.252  0.0000  0.0000  0.0000
 2915OM     OM1 2915   6.633   8.414   9.541  0.0000  0.0000  0.0000
 2916OM     OM1 2916   6.757   8.286   0.126  0.0000  0.0000  0.0000
 2917OM     OM1 2917   6.651   8.153   9.531  0.0000  0.0000  0.0000
 2918OM     OM1 2918   4.371   0.115   9.224  0.0000  0.0000  0.0000
 2919OM     OM1 2919   4.390   9.548   9.415  0.0000  0.0000  0.0000
 2920OM     OM1 2920   4.274   0.184   9.453  0.0000  0.0000  0.0000
 2921OM     OM1 2921   6.233   8.581   1.356  0.0000  0.0000  0.0000
 2922OM     OM1 2922   6.137   8.769   1.205  0.0000  0.0000  0.0000
 2923OM     OM1 2923   4.931   8.349   8.864  0.0000  0.0000  0.0000
 2924OM     OM1 2924   4.984   8.095   8.824  0.0000  0.0000  0.0000
 2925OM     OM1 2925   4.741   8.179   8.867  0.0000  0.0000  0.0000
 2926OM     OM1 2926   4.919   8.168   9.060  0.0000  0.0000  0.0000
 2927OM     OM1 2927   1.763   6.175   8.642  0.0000  0.0000  0.0000
 2928OM     OM1 2928   1.942   6.066   8.493  0.0000  0.0000  0.0000
 2929OM     OM1 2929   1.774   5.914   8.628  0.0000  0.0000  0.0000
 2930OM     OM1 2930   1.973   6.037   8.744  0.0000  0.0000  0.0000
 2931OM     OM1 2931   3.113   0.210   9.256  0.0000  0.0000  0.0000
 2932OM     OM1 2932   3.099   9.582   9.138  0.0000  0.0000  0.0000
 2933OM     OM1 2933   3.213   0.180   9.021  0.0000  0.0000  0.0000
 2934OM     OM1 2934   4.562   8.577   9.532  0.0000  0.0000  0.0000
 2935OM     OM1 2935   4.802   8.670   9.545  0.0000  0.0000  0.0000
 2936OM     OM1 2936   4.601   8.840   9.538  0.0000  0.0000  0.0000
 2937OM     OM1 2937   8.617   7.440   0.132  0.0000  0.0000  0.0000
 2938OM     OM1 2938   8.382   7.385   0.216  0.0000  0.0000  0.0000
 2939OM     OM1 2939   8.557   7.526   0.367  0.0000  0.0000  0.0000
 2940OM     OM1 2940   4.861   6.834   0.817  0.0000  0.0000  0.0000
 2941OM     OM1 2941   4.650   6.876   0.695  0.0000  0.0000  0.0000
 2942OM     OM1 2942   4.707   6.627   0.774  0.0000  0.0000  0.0000
 2943OM     OM1 2943   4.842   7.023   0.576  0.0000  0.0000  0.0000
 2944OM     OM1 2944   8.721   3.208   8.463  0.0000  0.0000  0.0000
 2945OM     OM1 2945   8.468   3.189   8.403  0.0000  0.0000  0.0000
 2946OM     OM1 2946   8.579   3.424   8.415  0.0000  0.0000  0.0000
 2947OM     OM1 2947   7.648   6.963   0.513  0.0000  0.0000  0.0000
 2948OM     OM1 2948   7.851   6.865   0.392  0.0000  0.0000  0.0000
 2949OM     OM1 2949   7.709   6.712   0.563  0.0000  0.0000  0.0000
 2950OM     OM1 2950   7.859   6.890   0.657  0.0000  0.0000  0.0000
 2951OM     OM1 2951   3.448   5.127   8.760  0.0000  0.0000  0.0000
 2952OM     OM1 2952   3.594   5.140   8.526  0.0000  0.0000  0.0000
 2953OM     OM1 2953   3.346   5.074   8.533  0.0000  0.0000  0.0000
 2954OM     OM1 2954   3.511   4.911   8.651  0.0000  0.0000  0.0000
 2955OM     OM1 2955   1.748   1.769   0.029  0.0000  0.0000  0.0000
 2956OM     OM1 2956   1.688   1.775   0.298  0.0000  0.0000  0.0000
 2957OM     OM1 2957   1.854   1.605   0.206  0.0000  0.0000  0.0000
 2958OM     OM1 2958   2.863   5.959   9.231  0.0000  0.0000  0.0000
 2959OM     OM1 2959   2.654   5.917   9.080  0.0000  0.0000  0.0000
 2960OM     OM1 2960   2.750   5.726   9.226  0.0000  0.0000  0.0000
 2961OM     OM1 2961   2.888   5.791   9.022  0.0000  0.0000  0.0000
 2962OM     OM1 2962   2.225   8.915   0.975  0.0000  0.0000  0.0000
 2963OM     OM1 2963   2.186   9.009   1.234  0.0000  0.0000  0.0000
 2964OM     OM1 2964   2.415   9.023   1.103  0.0000  0.0000  0.0000
 2965OM     OM1 2965   2.323   8.796   1.179  0.0000  0.0000  0.0000
 2966OM     OM1 2966   7.827   6.569   9.015  0.0000  0.0000  0.0000
 2967OM     OM1 2967   7.637   6.768   8.999  0.0000  0.0000  0.0000
 2968OM     OM1 2968   7.670   6.607   9.206  0.0000  0.0000  0.0000
 2969OM     OM1 2969   7.567   6.519   8.986  0.0000  0.0000  0.0000
 2970OM     OM1 2970   5.045   9.478   0.884  0.0000  0.0000  0.0000
 2971OM     OM1 2971   5.173   9.241   0.844  0.0000  0.0000  0.0000
 2972OM     OM1 2972   5.178   8.978   0.848  0.0000  0.0000  0.0000
 2973OM     OM1 2973   5.301   9.460   0.903  0.0000  0.0000  0.0000
 2974OM     OM1 2974   7.299   3.282   0.169  0.0000  0.0000  0.0000
 2975OM     OM1 2975   7.297   3.533   0.251  0.0000  0.0000  0.0000
 2976OM     OM1 2976   7.122   3.360   0.345  0.0000  0.0000  0.0000
 2977OM     OM1 2977   7.108   3.447   0.101  0.0000  0.0000  0.0000
 2978OM     OM1 2978   2.500   8.963   0.009  0.0000  0.0000  0.0000
 2979OM     OM1 2979   2.350   9.125   0.161  0.0000  0.0000  0.0000
 2980OM     OM1 2980   2.246   8.945   0.008  0.0000  0.0000  0.0000
 2981OM     OM1 2981   2.388   8.878   0.232  0.0000  0.0000  0.0000
 2982OM     OM1 2982   6.745   4.843   0.131  0.0000  0.0000  0.0000
 2983OM     OM1 2983   6.713   4.589   0.058  0.0000  0.0000  0.0000
 2984OM     OM1 2984   6.556   4.787   9.576  0.0000  0.0000  0.0000
 2985OM     OM1 2985   6.811   4.767   9.502  0.0000  0.0000  0.0000
 2986OM     OM1 2986   3.918   3.702   8.292  0.0000  0.0000  0.0000
 2987OM     OM1 2987   4.024   3.569   8.490  0.0000  0.0000  0.0000
 2988OM     OM1 2988   4.149   3.764   8.374  0.0000  0.0000  0.0000
 2989OM     OM1 2989   7.120   1.402   8.515  0.0000  0.0000  0.0000
 2990OM     OM1 2990   7.274   1.415   8.301  0.0000  0.0000  0.0000
 2991OM     OM1 2991   7.089   1.785   8.206  0.0000  0.0000  0.0000
 2992OM     OM1 2992   2.389   2.306   8.825  0.0000  0.0000  0.0000
 2993OM     OM1 2993   2.494   2.352   8.592  0.0000  0.0000  0.0000
 2994OM     OM1 2994   2.394   2.106   8.658  0.0000  0.0000  0.0000
 2995OM     OM1 2995   2.248   2.326   8.607  0.0000  0.0000  0.0000
 2996OM     OM1 2996   2.989   2.391   1.142  0.0000  0.0000  0.0000
 2997OM     OM1 2997   2.734   2.366   1.178  0.0000  0.0000  0.0000
 2998OM     OM1 2998   4.098   2.545   8.862  0.0000  0.0000  0.0000
 2999OM     OM1 2999   4.058   2.573   9.109  0.0000  0.0000  0.0000
 3000OM     OM1 3000   4.303   2.526   9.019  0.0000  0.0000  0.0000
 3001OM     OM1 3001   4.141   2.329   9.012  0.0000  0.0000  0.0000
 3002OM     OM1 3002   9.428   8.730   8.931  0.0000  0.0000  0.0000
 3003OM     OM1 3003   9.507   8.971   8.888  0.0000  0.0000  0.0000
 3004OM     OM1 3004   3.899   3.320   0.939  0.0000  0.0000  0.0000
 3005OM     OM1 3005   3.859   3.049   0.888  0.0000  0.0000  0.0000
 3006OM     OM1 3006   4.096   3.161   0.891  0.0000  0.0000  0.0000
 3007OM     OM1 3007   5.646   3.940   0.584  0.0000  0.0000  0.0000
 3008OM     OM1 3008   6.074   3.786   0.515  0.0000  0.0000  0.0000
 3009OM     OM1 3009   5.640   3.683   0.532  0.0000  0.0000  0.0000
 3010OM     OM1 3010   5.829   3.828   0.428  0.0000  0.0000  0.0000
 3011OM     OM1 3011   1.667   2.363   1.173  0.0000  0.0000  0.0000
 3012OM     OM1 3012   1.453   2.328   1.026  0.0000  0.0000  0.0000
 3013OM     OM1 3013   1.454   2.266   1.289  0.0000  0.0000  0.0000
 3014OM     OM1 3014   1.460   2.514   1.200  0.0000  0.0000  0.0000
 3015OM     OM1 3015   6.127   0.493   9.485  0.0000  0.0000  0.0000
 3016OM     OM1 3016   5.911   0.357   9.408  0.0000  0.0000  0.0000
 3017OM     OM1 3017   6.112   0.236   9.539  0.0000  0.0000  0.0000
 3018OM     OM1 3018   2.685   0.933   8.739  0.0000  0.0000  0.0000
 3019OM     OM1 3019   2.545   0.743   8.839  0.0000  0.0000  0.0000
 3020OM     OM1 3020   2.786   0.698   8.715  0.0000  0.0000  0.0000
 3021OM     OM1 3021   2.572   0.748   8.577  0.0000  0.0000  0.0000
 3022OM     OM1 3022   5.996   8.061   0.162  0.0000  0.0000  0.0000
 3023OM     OM1 3023   6.237   8.161   0.121  0.0000  0.0000  0.0000
 3024OM     OM1 3024   6.052   8.189   9.545  0.0000  0.0000  0.0000
 3025OM     OM1 3025   5.575   6.368   0.341  0.0000  0.0000  0.0000
 3026OM     OM1 3026   5.398   6.462   0.497  0.0000  0.0000  0.0000
 3027OM     OM1 3027   5.633   6.569   0.488  0.0000  0.0000  0.0000
 3028OM     OM1 3028   5.597   6.324   0.597  0.0000  0.0000  0.0000
 3029OM     OM1 3029   7.039   3.877   8.668  0.0000  0.0000  0.0000
 3030OM     OM1 3030   6.928   3.969   8.897  0.0000  0.0000  0.0000
 3031OM     OM1 3031   6.989   4.121   8.682  0.0000  0.0000  0.0000
 3032OM     OM1 3032   7.168   4.031   8.851  0.0000  0.0000  0.0000
 3033OM     OM1 3033   6.154   6.267   1.174  0.0000  0.0000  0.0000
 3034OM     OM1 3034   5.944   6.231   1.333  0.0000  0.0000  0.0000
 3035OM     OM1 3035   6.081   6.444   1.343  0.0000  0.0000  0.0000
 3036OM     OM1 3036   5.118   8.853   8.991  0.0000  0.0000  0.0000
 3037OM     OM1 3037   5.175   8.756   8.763  0.0000  0.0000  0.0000
 3038OM     OM1 3038   5.275   8.996   8.833  0.0000  0.0000  0.0000
 3039OM     OM1 3039   0.063   3.937   1.255  0.0000  0.0000  0.0000
 3040OM     OM1 3040   0.125   4.145   1.129  0.0000  0.0000  0.0000
 3041OM     OM1 3041   9.529   4.160   1.300  0.0000  0.0000  0.0000
 3042OM     OM1 3042   8.670   1.251   1.210  0.0000  0.0000  0.0000
 3043OM     OM1 3043   1.194   2.398   9.121  0.0000  0.0000  0.0000
 3044OM     OM1 3044   1.203   2.222   8.929  0.0000  0.0000  0.0000
 3045OM     OM1 3045   1.020   2.405   8.926  0.0000  0.0000  0.0000
 3046OM     OM1 3046   1.311   2.333   9.342  0.0000  0.0000  0.0000
 3047OM     OM1 3047   2.332   3.811   1.242  0.0000  0.0000  0.0000
 3048OM     OM1 3048   2.366   4.057   1.284  0.0000  0.0000  0.0000
 3049OM     OM1 3049   3.489   5.383   0.318  0.0000  0.0000  0.0000
 3050OM     OM1 3050   3.233   5.356   0.333  0.0000  0.0000  0.0000
 3051OM     OM1 3051   3.328   5.595   0.289  0.0000  0.0000  0.0000
 3052OM     OM1 3052   3.371   5.471   0.525  0.0000  0.0000  0.0000
 3053OM     OM1 3053   2.237   3.793   0.040  0.0000  0.0000  0.0000
 3054OM     OM1 3054   2.314   3.653   0.250  0.0000  0.0000  0.0000
 3055OM     OM1 3055   2.066   3.692   0.198  0.0000  0.0000  0.0000
 3056OM     OM1 3056   4.430   7.373   8.649  0.0000  0.0000  0.0000
 3057OM     OM1 3057   4.362   7.639   8.848  0.0000  0.0000  0.0000
 3058OM     OM1 3058   7.393   5.450   0.884  0.0000  0.0000  0.0000
 3059OM     OM1 3059   7.501   5.351   1.097  0.0000  0.0000  0.0000
 3060OM     OM1 3060   7.527   5.237   0.867  0.0000  0.0000  0.0000
 3061OM     OM1 3061   9.021   6.962   0.008  0.0000  0.0000  0.0000
 3062OM     OM1 3062   8.766   6.975   0.080  0.0000  0.0000  0.0000
 3063OM     OM1 3063   9.164   9.323   8.749  0.0000  0.0000  0.0000
 3064OM     OM1 3064   8.956   9.474   8.757  0.0000  0.0000  0.0000
 3065OM     OM1 3065   9.206   9.567   8.810  0.0000  0.0000  0.0000
 3066OM     OM1 3066   9.131   9.523   8.568  0.0000  0.0000  0.0000
 3067OM     OM1 3067   3.970   9.393   9.388  0.0000  0.0000  0.0000
 3068OM     OM1 3068   4.158   9.446   9.205  0.0000  0.0000  0.0000
 3069OM     OM1 3069   4.093   0.017   9.397  0.0000  0.0000  0.0000
 3070OM     OM1 3070   8.990   6.205   8.656  0.0000  0.0000  0.0000
 3071OM     OM1 3071   9.140   6.223   8.444  0.0000  0.0000  0.0000
 3072OM     OM1 3072   8.962   6.413   8.496  0.0000  0.0000  0.0000
 3073OM     OM1 3073   9.177   6.381   8.647  0.0000  0.0000  0.0000
 3074OM     OM1 3074   5.456   7.391   0.140  0.0000  0.0000  0.0000
 3075OM     OM1 3075   5.663   7.466   0.016  0.0000  0.0000  0.0000
 3076OM     OM1 3076   5.655   7.452   0.288  0.0000  0.0000  0.0000
 3077OM     OM1 3077   0.778   1.561   0.299  0.0000  0.0000  0.0000
 3078OM     OM1 3078   0.639   1.770   0.365  0.0000  0.0000  0.0000
 3079OM     OM1 3079   0.550   1.607   0.177  0.0000  0.0000  0.0000
 3080OM     OM1 3080   9.454   0.218   0.781  0.0000  0.0000  0.0000
 3081OM     OM1 3081   9.393   0.328   0.559  0.0000  0.0000  0.0000
 3082OM     OM1 3082   4.129   6.965   0.163  0.0000  0.0000  0.0000
 3083OM     OM1 3083   4.211   6.773   0.304  0.0000  0.0000  0.0000
 3084OM     OM1 3084   9.482   9.220   8.786  0.0000  0.0000  0.0000
 3085OM     OM1 3085   0.274   9.262   8.872  0.0000  0.0000  0.0000
 3086OM     OM1 3086   0.056   9.395   8.848  0.0000  0.0000  0.0000
 3087OM     OM1 3087   6.214   8.844   8.787  0.0000  0.0000  0.0000
 3088OM     OM1 3088   6.056   9.048   8.805  0.0000  0.0000  0.0000
 3089OM     OM1 3089   6.179   9.002   8.576  0.0000  0.0000  0.0000
 3090OM     OM1 3090   1.838   7.817   0.353  0.0000  0.0000  0.0000
 3091OM     OM1 3091   2.038   7.928   0.474  0.0000  0.0000  0.0000
 3092OM     OM1 3092   1.803   8.036   0.500  0.0000  0.0000  0.0000
 3093OM     OM1 3093   1.914   8.053   0.271  0.0000  0.0000  0.0000
 3094OM     OM1 3094   2.850   0.877   0.239  0.0000  0.0000  0.0000
 3095OM     OM1 3095   3.108   0.836   0.202  0.0000  0.0000  0.0000
 3096OM     OM1 3096   2.964   0.889   9.605  0.0000  0.0000  0.0000
 3097OM     OM1 3097   5.138   3.888   0.554  0.0000  0.0000  0.0000
 3098OM     OM1 3098   5.314   4.037   0.659  0.0000  0.0000  0.0000
 3099OM     OM1 3099   5.121   3.959   0.806  0.0000  0.0000  0.0000
 3100OM     OM1 3100   1.480   1.687   8.298  0.0000  0.0000  0.0000
 3101OM     OM1 3101   1.431   1.425   8.316  0.0000  0.0000  0.0000
 3102OM     OM1 3102   1.592   1.144   9.568  0.0000  0.0000  0.0000
 3103OM     OM1 3103   1.842   1.071   0.006  0.0000  0.0000  0.0000
 3104OM     OM1 3104   1.918   9.489   8.373  0.0000  0.0000  0.0000
 3105OM     OM1 3105   1.813   0.124   8.331  0.0000  0.0000  0.0000
 3106OM     OM1 3106   2.045   0.071   8.238  0.0000  0.0000  0.0000
 3107OM     OM1 3107   4.780   8.467   1.053  0.0000  0.0000  0.0000
 3108OM     OM1 3108   4.968   8.276   1.056  0.0000  0.0000  0.0000
 3109OM     OM1 3109   4.792   8.295   1.372  0.0000  0.0000  0.0000
 3110OM     OM1 3110   5.808   2.645   0.826  0.0000  0.0000  0.0000
 3111OM     OM1 3111   6.022   2.571   0.689  0.0000  0.0000  0.0000
 3112OM     OM1 3112   5.917   2.396   0.845  0.0000  0.0000  0.0000
 3113OM     OM1 3113   6.482   3.777   0.152  0.0000  0.0000  0.0000
 3114OM     OM1 3114   6.639   3.572   0.150  0.0000  0.0000  0.0000
 3115OM     OM1 3115   6.693   3.774   0.313  0.0000  0.0000  0.0000
 3116OM     OM1 3116   6.486   3.620   0.356  0.0000  0.0000  0.0000
 3117OM     OM1 3117   5.012   8.814   9.596  0.0000  0.0000  0.0000
 3118OM     OM1 3118   5.009   8.634   9.397  0.0000  0.0000  0.0000
 3119OM     OM1 3119   3.823   9.325   8.265  0.0000  0.0000  0.0000
 3120OM     OM1 3120   3.801   9.108   8.405  0.0000  0.0000  0.0000
 3121OM     OM1 3121   4.032   9.213   8.358  0.0000  0.0000  0.0000
 3122OM     OM1 3122   0.413   8.118   9.472  0.0000  0.0000  0.0000
 3123OM     OM1 3123   0.642   8.122   9.353  0.0000  0.0000  0.0000
 3124OM     OM1 3124   0.624   8.078   0.009  0.0000  0.0000  0.0000
 3125OM     OM1 3125   0.537   7.890   9.448  0.0000  0.0000  0.0000
 3126OM     OM1 3126   8.769   7.053   0.778  0.0000  0.0000  0.0000
 3127OM     OM1 3127   8.630   6.885   0.940  0.0000  0.0000  0.0000
 3128OM     OM1 3128   8.546   7.129   0.878  0.0000  0.0000  0.0000
 3129OM     OM1 3129   8.554   6.940   0.696  0.0000  0.0000  0.0000
 3130OM     OM1 3130   6.533   8.379   0.427  0.0000  0.0000  0.0000
 3131OM     OM1 3131   6.370   8.242   0.566  0.0000  0.0000  0.0000
 3132OM     OM1 3132   6.416   8.171   0.315  0.0000  0.0000  0.0000
 3133OM     OM1 3133   3.424   0.984   8.422  0.0000  0.0000  0.0000
 3134OM     OM1 3134   3.323   1.019   8.656  0.0000  0.0000  0.0000
 3135OM     OM1 3135   3.513   0.835   8.620  0.0000  0.0000  0.0000
 3136OM     OM1 3136   3.423   1.124   8.869  0.0000  0.0000  0.0000
 3137OM     OM1 3137   2.675   7.804   8.925  0.0000  0.0000  0.0000
 3138OM     OM1 3138   2.532   7.759   9.147  0.0000  0.0000  0.0000
 3139OM     OM1 3139   2.773   7.841   9.165  0.0000  0.0000  0.0000
 3140OM     OM1 3140   9.241   3.072   9.115  0.0000  0.0000  0.0000
 3141OM     OM1 3141   9.344   2.884   9.244  0.0000  0.0000  0.0000
 3142OM     OM1 3142   9.379   3.131   9.332  0.0000  0.0000  0.0000
 3143OM     OM1 3143   9.136   3.012   9.352  0.0000  0.0000  0.0000
 3144OM     OM1 3144   0.500   3.118   9.090  0.0000  0.0000  0.0000
 3145OM     OM1 3145   0.538   2.986   9.315  0.0000  0.0000  0.0000
 3146OM     OM1 3146   0.681   3.203   9.253  0.0000  0.0000  0.0000
 3147OM     OM1 3147   0.062   3.898   8.235  0.0000  0.0000  0.0000
 3148OM     OM1 3148   9.037   5.726   8.397  0.0000  0.0000  0.0000
 3149OM     OM1 3149   9.238   5.591   8.483  0.0000  0.0000  0.0000
 3150OM     OM1 3150   2.030   1.614   0.401  0.0000  0.0000  0.0000
 3151OM     OM1 3151   1.892   1.517   0.593  0.0000  0.0000  0.0000
 3152OM     OM1 3152   1.990   1.757   0.639  0.0000  0.0000  0.0000
 3153OM     OM1 3153   2.147   1.572   0.635  0.0000  0.0000  0.0000
 3154OM     OM1 3154   4.177   5.868   0.411  0.0000  0.0000  0.0000
 3155OM     OM1 3155   4.429   5.958   0.471  0.0000  0.0000  0.0000
 3156OM     OM1 3156   4.329   6.026   0.249  0.0000  0.0000  0.0000
 3157OM     OM1 3157   0.882   1.965   0.047  0.0000  0.0000  0.0000
 3158OM     OM1 3158   0.651   2.081   9.599  0.0000  0.0000  0.0000
 3159OM     OM1 3159   0.758   1.919   9.418  0.0000  0.0000  0.0000
 3160OM     OM1 3160   0.866   2.147   9.469  0.0000  0.0000  0.0000
 3161OM     OM1 3161   4.666   8.096   1.275  0.0000  0.0000  0.0000
 3162OM     OM1 3162   4.041   8.058   0.069  0.0000  0.0000  0.0000
 3163OM     OM1 3163   3.785   8.012   9.601  0.0000  0.0000  0.0000
 3164OM     OM1 3164   3.958   8.133   9.446  0.0000  0.0000  0.0000
 3165OM     OM1 3165   8.347   4.224   9.094  0.0000  0.0000  0.0000
 3166OM     OM1 3166   8.516   4.106   9.252  0.0000  0.0000  0.0000
 3167OM     OM1 3167   8.389   3.975   9.054  0.0000  0.0000  0.0000
 3168OM     OM1 3168   8.577   4.165   9.005  0.0000  0.0000  0.0000
 3169OM     OM1 3169   6.608   8.156   8.885  0.0000  0.0000  0.0000
 3170OM     OM1 3170   6.669   8.354   8.728  0.0000  0.0000  0.0000
 3171OM     OM1 3171   6.579   8.129   8.622  0.0000  0.0000  0.0000
 3172OM     OM1 3172   6.421   8.283   8.757  0.0000  0.0000  0.0000
 3173OM     OM1 3173   9.189   6.629   8.984  0.0000  0.0000  0.0000
 3174OM     OM1 3174   9.192   6.594   9.237  0.0000  0.0000  0.0000
 3175OM     OM1 3175   9.316   6.422   9.091  0.0000  0.0000  0.0000
 3176OM     OM1 3176   9.055   6.427   9.085  0.0000  0.0000  0.0000
 3177OM     OM1 3177   5.716   4.678   9.022  0.0000  0.0000  0.0000
 3178OM     OM1 3178   5.567   4.486   8.920  0.0000  0.0000  0.0000
 3179OM     OM1 3179   5.581   4.728   8.807  0.0000  0.0000  0.0000
 3180OM     OM1 3180   5.780   4.574   8.796  0.0000  0.0000  0.0000
 3181OM     OM1 3181   1.751   8.293   9.184  0.0000  0.0000  0.0000
 3182OM     OM1 3182   1.608   8.499   9.121  0.0000  0.0000  0.0000
 3183OM     OM1 3183   1.732   8.367   8.936  0.0000  0.0000  0.0000
 3184OM     OM1 3184   3.785   6.674   1.293  0.0000  0.0000  0.0000
 3185OM     OM1 3185   2.111   5.498   9.005  0.0000  0.0000  0.0000
 3186OM     OM1 3186   2.366   5.436   9.000  0.0000  0.0000  0.0000
 3187OM     OM1 3187   2.212   5.365   9.210  0.0000  0.0000  0.0000
 3188OM     OM1 3188   6.132   8.849   8.377  0.0000  0.0000  0.0000
 3189OM     OM1 3189   6.302   8.670   8.301  0.0000  0.0000  0.0000
 3190OM     OM1 3190   0.775   8.978   0.863  0.0000  0.0000  0.0000
 3191OM     OM1 3191   0.658   9.140   1.024  0.0000  0.0000  0.0000
 3192OM     OM1 3192   0.740   8.892   1.097  0.0000  0.0000  0.0000
 3193OM     OM1 3193   0.908   9.094   1.060  0.0000  0.0000  0.0000
 3194OM     OM1 3194   6.640   6.907   0.911  0.0000  0.0000  0.0000
 3195OM     OM1 3195   6.774   6.990   1.114  0.0000  0.0000  0.0000
 3196OM     OM1 3196   6.593   7.088   0.724  0.0000  0.0000  0.0000
 3197OM     OM1 3197   6.893   6.827   0.970  0.0000  0.0000  0.0000
 3198OM     OM1 3198   3.208   2.032   9.415  0.0000  0.0000  0.0000
 3199OM     OM1 3199   3.404   1.946   9.268  0.0000  0.0000  0.0000
 3200OM     OM1 3200   3.232   2.111   9.162  0.0000  0.0000  0.0000
 3201OM     OM1 3201   3.402   2.193   9.339  0.0000  0.0000  0.0000
 3202OM     OM1 3202   3.043   7.484   9.324  0.0000  0.0000  0.0000
 3203OM     OM1 3203   2.898   7.697   9.346  0.0000  0.0000  0.0000
 3204OM     OM1 3204   2.848   7.501   9.512  0.0000  0.0000  0.0000
 3205OM     OM1 3205   3.063   7.641   9.536  0.0000  0.0000  0.0000
 3206OM     OM1 3206   8.395   7.363   8.442  0.0000  0.0000  0.0000
 3207OM     OM1 3207   8.248   7.172   8.324  0.0000  0.0000  0.0000
 3208OM     OM1 3208   8.198   7.243   8.564  0.0000  0.0000  0.0000
 3209OM     OM1 3209   5.591   2.792   9.045  0.0000  0.0000  0.0000
 3210OM     OM1 3210   5.480   3.029   9.063  0.0000  0.0000  0.0000
 3211OM     OM1 3211   5.500   2.895   9.273  0.0000  0.0000  0.0000
 3212OM     OM1 3212   5.323   2.819   9.101  0.0000  0.0000  0.0000
 3213OM     OM1 3213   1.654   0.411   0.855  0.0000  0.0000  0.0000
 3214OM     OM1 3214   1.509   0.319   0.442  0.0000  0.0000  0.0000
 3215OM     OM1 3215   1.567   0.228   0.693  0.0000  0.0000  0.0000
 3216OM     OM1 3216   0.221   0.178   8.871  0.0000  0.0000  0.0000
 3217OM     OM1 3217   0.225   0.426   8.792  0.0000  0.0000  0.0000
 3218OM     OM1 3218   0.346   0.356   9.011  0.0000  0.0000  0.0000
 3219OM     OM1 3219   0.282   0.315   8.284  0.0000  0.0000  0.0000
 3220OM     OM1 3220   0.101   0.193   8.434  0.0000  0.0000  0.0000
 3221OM     OM1 3221   0.073   0.443   8.357  0.0000  0.0000  0.0000
 3222OM     OM1 3222   0.252   0.389   8.533  0.0000  0.0000  0.0000
 3223OM     OM1 3223   4.275   0.789   8.185  0.0000  0.0000  0.0000
 3224OM     OM1 3224   4.488   0.708   8.315  0.0000  0.0000  0.0000
 3225OM     OM1 3225   1.122   3.606   9.044  0.0000  0.0000  0.0000
 3226OM     OM1 3226   1.143   3.359   9.130  0.0000  0.0000  0.0000
 3227OM     OM1 3227   1.112   3.548   9.294  0.0000  0.0000  0.0000
 3228OM     OM1 3228   1.343   3.521   9.182  0.0000  0.0000  0.0000
 3229OM     OM1 3229   8.447   3.302   0.998  0.0000  0.0000  0.0000
 3230OM     OM1 3230   8.378   3.289   0.744  0.0000  0.0000  0.0000
 3231OM     OM1 3231   8.623   3.315   0.814  0.0000  0.0000  0.0000
 3232OM     OM1 3232   8.463   3.518   0.838  0.0000  0.0000  0.0000
 3233OM     OM1 3233   2.180   5.020   9.095  0.0000  0.0000  0.0000
 3234OM     OM1 3234   2.085   4.761   8.762  0.0000  0.0000  0.0000
 3235OM     OM1 3235   1.920   4.707   8.940  0.0000  0.0000  0.0000
 3236OM     OM1 3236   3.551   8.909   9.472  0.0000  0.0000  0.0000
 3237OM     OM1 3237   3.550   9.114   9.310  0.0000  0.0000  0.0000
 3238OM     OM1 3238   3.325   8.987   9.348  0.0000  0.0000  0.0000
 3239OM     OM1 3239   3.420   9.123   9.543  0.0000  0.0000  0.0000
 3240OM     OM1 3240   9.015   5.066   0.648  0.0000  0.0000  0.0000
 3241OM     OM1 3241   8.829   4.950   0.510  0.0000  0.0000  0.0000
 3242OM     OM1 3242   8.751   5.109   0.704  0.0000  0.0000  0.0000
 3243OM     OM1 3243   1.917   8.303   0.191  0.0000  0.0000  0.0000
 3244OM     OM1 3244   1.698   8.173   0.166  0.0000  0.0000  0.0000
 3245OM     OM1 3245   1.887   8.110   0.013  0.0000  0.0000  0.0000
 3246OM     OM1 3246   6.230   8.392   8.610  0.0000  0.0000  0.0000
 3247OM     OM1 3247   6.219   8.594   8.764  0.0000  0.0000  0.0000
 3248OM     OM1 3248   6.158   8.624   8.507  0.0000  0.0000  0.0000
 3249OM     OM1 3249   5.996   8.503   8.661  0.0000  0.0000  0.0000
 3250OM     OM1 3250   4.978   8.093   0.770  0.0000  0.0000  0.0000
 3251OM     OM1 3251   4.897   8.293   0.630  0.0000  0.0000  0.0000
 3252OM     OM1 3252   4.957   8.073   0.516  0.0000  0.0000  0.0000
 3253OM     OM1 3253   1.570   5.503   1.154  0.0000  0.0000  0.0000
 3254OM     OM1 3254   1.350   5.457   1.002  0.0000  0.0000  0.0000
 3255OM     OM1 3255   1.572   5.346   0.961  0.0000  0.0000  0.0000
 3256OM     OM1 3256   2.343   6.246   9.426  0.0000  0.0000  0.0000
 3257OM     OM1 3257   2.392   6.498   9.374  0.0000  0.0000  0.0000
 3258OM     OM1 3258   2.412   6.310   9.185  0.0000  0.0000  0.0000
 3259OM     OM1 3259   2.585   6.312   9.389  0.0000  0.0000  0.0000
 3260OM     OM1 3260   8.021   2.950   0.625  0.0000  0.0000  0.0000
 3261OM     OM1 3261   8.082   3.080   0.402  0.0000  0.0000  0.0000
 3262OM     OM1 3262   8.249   3.087   0.602  0.0000  0.0000  0.0000
 3263OM     OM1 3263   8.203   2.863   0.470  0.0000  0.0000  0.0000
 3264OM     OM1 3264   0.227   0.631   8.640  0.0000  0.0000  0.0000
 3265OM     OM1 3265   9.507   3.281   9.518  0.0000  0.0000  0.0000
 3266OM     OM1 3266   9.534   3.507   0.058  0.0000  0.0000  0.0000
 3267OM     OM1 3267   9.305   3.426   9.552  0.0000  0.0000  0.0000
 3268OM     OM1 3268   9.406   3.314   0.155  0.0000  0.0000  0.0000
 3269OM     OM1 3269   2.865   8.983   0.151  0.0000  0.0000  0.0000
 3270OM     OM1 3270   3.071   9.148   0.194  0.0000  0.0000  0.0000
 3271OM     OM1 3271   2.828   9.230   0.242  0.0000  0.0000  0.0000
 3272OM     OM1 3272   2.933   9.051   0.390  0.0000  0.0000  0.0000
 3273OM     OM1 3273   3.465   1.814   9.053  0.0000  0.0000  0.0000
 3274OM     OM1 3274   3.357   1.571   9.088  0.0000  0.0000  0.0000
 3275OM     OM1 3275   3.403   1.664   8.849  0.0000  0.0000  0.0000
 3276OM     OM1 3276   3.600   1.596   9.007  0.0000  0.0000  0.0000
 3277OM     OM1 3277   2.396   7.265   0.016  0.0000  0.0000  0.0000
 3278OM     OM1 3278   2.622   7.393   0.030  0.0000  0.0000  0.0000
 3279OM     OM1 3279   1.730   3.272   9.079  0.0000  0.0000  0.0000
 3280OM     OM1 3280   1.619   3.071   9.205  0.0000  0.0000  0.0000
 3281OM     OM1 3281   1.504   3.315   9.192  0.0000  0.0000  0.0000
 3282OM     OM1 3282   6.470   1.947   8.501  0.0000  0.0000  0.0000
 3283OM     OM1 3283   6.237   1.905   8.602  0.0000  0.0000  0.0000
 3284OM     OM1 3284   4.553   4.482   1.131  0.0000  0.0000  0.0000
 3285OM     OM1 3285   4.453   4.674   1.274  0.0000  0.0000  0.0000
 3286OM     OM1 3286   4.829   3.686   0.062  0.0000  0.0000  0.0000
 3287OM     OM1 3287   4.842   3.704   9.405  0.0000  0.0000  0.0000
 3288OM     OM1 3288   3.233   5.921   9.232  0.0000  0.0000  0.0000
 3289OM     OM1 3289   3.414   6.083   9.331  0.0000  0.0000  0.0000
 3290OM     OM1 3290   3.443   5.981   9.084  0.0000  0.0000  0.0000
 3291OM     OM1 3291   3.717   6.771   9.258  0.0000  0.0000  0.0000
 3292OM     OM1 3292   3.758   6.728   8.937  0.0000  0.0000  0.0000
 3293OM     OM1 3293   3.761   6.954   9.086  0.0000  0.0000  0.0000
 3294OM     OM1 3294   3.975   6.833   9.016  0.0000  0.0000  0.0000
 3295OM     OM1 3295   8.224   3.782   8.956  0.0000  0.0000  0.0000
 3296OM     OM1 3296   8.167   4.034   8.929  0.0000  0.0000  0.0000
 3297OM     OM1 3297   8.158   3.929   9.163  0.0000  0.0000  0.0000
 3298OM     OM1 3298   4.946   2.144   0.803  0.0000  0.0000  0.0000
 3299OM     OM1 3299   4.947   1.832   1.111  0.0000  0.0000  0.0000
 3300OM     OM1 3300   4.894   2.091   1.054  0.0000  0.0000  0.0000
 3301OM     OM1 3301   4.722   1.941   1.192  0.0000  0.0000  0.0000
 3302OM     OM1 3302   2.001   5.005   8.320  0.0000  0.0000  0.0000
 3303OM     OM1 3303   1.920   4.764   8.266  0.0000  0.0000  0.0000
 3304OM     OM1 3304   1.814   4.887   8.469  0.0000  0.0000  0.0000
 3305OM     OM1 3305   7.516   3.057   9.162  0.0000  0.0000  0.0000
 3306OM     OM1 3306   7.477   3.290   9.282  0.0000  0.0000  0.0000
 3307OM     OM1 3307   7.531   3.080   9.421  0.0000  0.0000  0.0000
 3308OM     OM1 3308   7.302   3.098   9.309  0.0000  0.0000  0.0000
 3309OM     OM1 3309   8.126   0.826   9.263  0.0000  0.0000  0.0000
 3310OM     OM1 3310   8.224   1.025   9.137  0.0000  0.0000  0.0000
 3311OM     OM1 3311   8.207   0.799   9.010  0.0000  0.0000  0.0000
 3312OM     OM1 3312   8.391   0.829   9.199  0.0000  0.0000  0.0000
 3313OM     OM1 3313   8.536   1.374   0.899  0.0000  0.0000  0.0000
 3314OM     OM1 3314   8.621   1.434   0.658  0.0000  0.0000  0.0000
 3315OM     OM1 3315   8.769   1.503   0.856  0.0000  0.0000  0.0000
 3316OM     OM1 3316   8.531   1.620   0.826  0.0000  0.0000  0.0000
 3317OM     OM1 3317   3.902   8.905   0.462  0.0000  0.0000  0.0000
 3318OM     OM1 3318   4.001   8.659   0.458  0.0000  0.0000  0.0000
 3319OM     OM1 3319   3.842   8.739   0.268  0.0000  0.0000  0.0000
 3320OM     OM1 3320   2.046   1.974   0.758  0.0000  0.0000  0.0000
 3321OM     OM1 3321   1.801   1.870   0.766  0.0000  0.0000  0.0000
 3322OM     OM1 3322   1.978   1.762   0.912  0.0000  0.0000  0.0000
 3323OM     OM1 3323   8.710   7.250   9.112  0.0000  0.0000  0.0000
 3324OM     OM1 3324   8.897   7.362   8.968  0.0000  0.0000  0.0000
 3325OM     OM1 3325   0.740   9.595   9.568  0.0000  0.0000  0.0000
 3326OM     OM1 3326   0.886   0.100   9.368  0.0000  0.0000  0.0000
 3327OM     OM1 3327   0.999   0.021   9.584  0.0000  0.0000  0.0000
 3328OM     OM1 3328   0.971   0.013   9.141  0.0000  0.0000  0.0000
 3329OM     OM1 3329   1.817   4.421   1.093  0.0000  0.0000  0.0000
 3330OM     OM1 3330   2.023   4.497   0.926  0.0000  0.0000  0.0000
 3331OM     OM1 3331   1.874   4.667   1.058  0.0000  0.0000  0.0000
 3332OM     OM1 3332   2.043   4.503   1.184  0.0000  0.0000  0.0000
 3333OM     OM1 3333   4.317   8.380   1.233  0.0000  0.0000  0.0000
 3334OM     OM1 3334   4.071   8.356   1.173  0.0000  0.0000  0.0000
 3335OM     OM1 3335   4.220   8.151   1.133  0.0000  0.0000  0.0000
 3336OM     OM1 3336   9.179   1.915   1.253  0.0000  0.0000  0.0000
 3337OM     OM1 3337   9.042   1.696   1.293  0.0000  0.0000  0.0000
 3338OM     OM1 3338   2.826   5.656   1.421  0.0000  0.0000  0.0000
 3339OM     OM1 3339   2.942   5.502   1.261  0.0000  0.0000  0.0000
 3340OM     OM1 3340   1.935   6.463   8.815  0.0000  0.0000  0.0000
 3341OM     OM1 3341   1.807   6.476   9.046  0.0000  0.0000  0.0000
 3342OM     OM1 3342   1.702   6.586   8.833  0.0000  0.0000  0.0000
 3343OM     OM1 3343   1.711   6.331   8.841  0.0000  0.0000  0.0000
 3344OM     OM1 3344   3.507   2.801   1.148  0.0000  0.0000  0.0000
 3345OM     OM1 3345   3.677   2.605   1.193  0.0000  0.0000  0.0000
 3346OM     OM1 3346   3.478   2.564   1.039  0.0000  0.0000  0.0000
 3347OM     OM1 3347   3.435   2.596   1.291  0.0000  0.0000  0.0000
 3348OM     OM1 3348   6.853   8.240   0.818  0.0000  0.0000  0.0000
 3349OM     OM1 3349   6.703   8.264   0.598  0.0000  0.0000  0.0000
 3350OM     OM1 3350   6.759   8.027   0.726  0.0000  0.0000  0.0000
 3351OM     OM1 3351   4.824   1.085   8.552  0.0000  0.0000  0.0000
 3352OM     OM1 3352   5.013   1.259   8.554  0.0000  0.0000  0.0000
 3353OM     OM1 3353   5.083   1.019   8.475  0.0000  0.0000  0.0000
 3354OM     OM1 3354   4.512   9.330   9.506  0.0000  0.0000  0.0000
 3355OM     OM1 3355   4.266   9.381   9.558  0.0000  0.0000  0.0000
 3356OM     OM1 3356   4.343   9.315   9.306  0.0000  0.0000  0.0000
 3357OM     OM1 3357   5.550   9.505   0.857  0.0000  0.0000  0.0000
 3358OM     OM1 3358   5.590   9.180   1.211  0.0000  0.0000  0.0000
 3359OM     OM1 3359   5.486   9.324   1.026  0.0000  0.0000  0.0000
 3360OM     OM1 3360   5.647   9.122   0.960  0.0000  0.0000  0.0000
 3361OM     OM1 3361   5.361   9.236   8.911  0.0000  0.0000  0.0000
 3362OM     OM1 3362   5.404   9.148   8.667  0.0000  0.0000  0.0000
 3363OM     OM1 3363   5.534   9.045   8.859  0.0000  0.0000  0.0000
 3364OM     OM1 3364   2.190   4.649   8.553  0.0000  0.0000  0.0000
 3365OM     OM1 3365   2.152   4.655   8.286  0.0000  0.0000  0.0000
 3366OM     OM1 3366   2.060   4.337   8.626  0.0000  0.0000  0.0000
 3367OM     OM1 3367   2.158   4.429   8.412  0.0000  0.0000  0.0000
 3368OM     OM1 3368   5.340   1.386   0.926  0.0000  0.0000  0.0000
 3369OM     OM1 3369   5.454   1.481   0.713  0.0000  0.0000  0.0000
 3370OM     OM1 3370   5.255   1.605   0.806  0.0000  0.0000  0.0000
 3371OM     OM1 3371   0.119   6.876   8.269  0.0000  0.0000  0.0000
 3372OM     OM1 3372   9.411   8.892   1.199  0.0000  0.0000  0.0000
 3373OM     OM1 3373   9.409   8.966   0.946  0.0000  0.0000  0.0000
 3374OM     OM1 3374   9.316   8.728   1.025  0.0000  0.0000  0.0000
 3375OM     OM1 3375   9.190   8.952   1.087  0.0000  0.0000  0.0000
 3376OM     OM1 3376   3.965   1.811   1.194  0.0000  0.0000  0.0000
 3377OM     OM1 3377   4.057   1.994   1.014  0.0000  0.0000  0.0000
 3378OM     OM1 3378   4.216   1.876   1.175  0.0000  0.0000  0.0000
 3379OM     OM1 3379   8.676   3.653   1.318  0.0000  0.0000  0.0000
 3380OM     OM1 3380   8.902   3.659   1.426  0.0000  0.0000  0.0000
 3381OM     OM1 3381   3.685   9.303   0.412  0.0000  0.0000  0.0000
 3382OM     OM1 3382   3.676   9.566   0.452  0.0000  0.0000  0.0000
 3383OM     OM1 3383   3.688   9.465   0.205  0.0000  0.0000  0.0000
 3384OM     OM1 3384   3.891   9.482   0.363  0.0000  0.0000  0.0000
 3385OM     OM1 3385   2.155   1.752   8.446  0.0000  0.0000  0.0000
 3386OM     OM1 3386   2.374   1.850   8.543  0.0000  0.0000  0.0000
 3387OM     OM1 3387   2.372   1.611   8.423  0.0000  0.0000  0.0000
 3388OM     OM1 3388   2.507   1.162   9.030  0.0000  0.0000  0.0000
 3389OM     OM1 3389   2.474   1.314   8.821  0.0000  0.0000  0.0000
 3390OM     OM1 3390   2.692   1.170   8.858  0.0000  0.0000  0.0000
 3391OM     OM1 3391   2.633   1.391   9.007  0.0000  0.0000  0.0000
 3392OM     OM1 3392   8.704   5.727   9.596  0.0000  0.0000  0.0000
 3393OM     OM1 3393   8.827   5.689   9.376  0.0000  0.0000  0.0000
 3394OM     OM1 3394   8.940   5.605   9.602  0.0000  0.0000  0.0000
 3395OM     OM1 3395   8.729   5.484   9.499  0.0000  0.0000  0.0000
 3396OM     OM1 3396   0.713   6.622   8.703  0.0000  0.0000  0.0000
 3397OM     OM1 3397   0.924   6.761   8.739  0.0000  0.0000  0.0000
 3398OM     OM1 3398   0.681   6.871   8.768  0.0000  0.0000  0.0000
 3399OM     OM1 3399   8.153   5.571   8.826  0.0000  0.0000  0.0000
 3400OM     OM1 3400   7.906   5.644   8.788  0.0000  0.0000  0.0000
 3401OM     OM1 3401   8.117   5.794   8.701  0.0000  0.0000  0.0000
 3402OM     OM1 3402   2.097   2.312   9.545  0.0000  0.0000  0.0000
 3403OM     OM1 3403   2.262   2.519   9.539  0.0000  0.0000  0.0000
 3404OM     OM1 3404   2.173   2.414   0.163  0.0000  0.0000  0.0000
 3405OM     OM1 3405   2.012   2.548   9.604  0.0000  0.0000  0.0000
 3406OM     OM1 3406   1.794   0.578   1.002  0.0000  0.0000  0.0000
 3407OM     OM1 3407   6.030   7.507   0.894  0.0000  0.0000  0.0000
 3408OM     OM1 3408   6.015   7.731   1.032  0.0000  0.0000  0.0000
 3409OM     OM1 3409   6.095   7.970   1.112  0.0000  0.0000  0.0000
 3410OM     OM1 3410   5.655   5.289   0.503  0.0000  0.0000  0.0000
 3411OM     OM1 3411   5.430   5.298   0.638  0.0000  0.0000  0.0000
 3412OM     OM1 3412   5.658   5.336   0.759  0.0000  0.0000  0.0000
 3413OM     OM1 3413   5.591   5.096   0.672  0.0000  0.0000  0.0000
 3414OM     OM1 3414   1.023   7.434   0.632  0.0000  0.0000  0.0000
 3415OM     OM1 3415   0.777   7.388   0.542  0.0000  0.0000  0.0000
 3416OM     OM1 3416   1.287   7.386   0.612  0.0000  0.0000  0.0000
 3417OM     OM1 3417   0.154   1.491   8.386  0.0000  0.0000  0.0000
 3418OM     OM1 3418   0.364   1.495   8.242  0.0000  0.0000  0.0000
 3419OM     OM1 3419   0.289   1.270   8.351  0.0000  0.0000  0.0000
 3420OM     OM1 3420   7.898   1.904   9.099  0.0000  0.0000  0.0000
 3421OM     OM1 3421   7.798   2.028   8.884  0.0000  0.0000  0.0000
 3422OM     OM1 3422   8.055   1.964   8.900  0.0000  0.0000  0.0000
 3423OM     OM1 3423   7.872   1.780   8.870  0.0000  0.0000  0.0000
 3424OM     OM1 3424   5.323   3.610   1.205  0.0000  0.0000  0.0000
 3425OM     OM1 3425   5.189   3.424   1.333  0.0000  0.0000  0.0000
 3426OM     OM1 3426   7.177   8.702   0.392  0.0000  0.0000  0.0000
 3427OM     OM1 3427   7.215   8.768   0.145  0.0000  0.0000  0.0000
 3428OM     OM1 3428   7.358   8.580   0.250  0.0000  0.0000  0.0000
 3429OM     OM1 3429   7.402   8.832   0.310  0.0000  0.0000  0.0000
 3430OM     OM1 3430   1.048   2.687   8.363  0.0000  0.0000  0.0000
 3431OM     OM1 3431   0.825   2.543   8.375  0.0000  0.0000  0.0000
 3432OM     OM1 3432   6.491   8.255   0.090  0.0000  0.0000  0.0000
 3433OM     OM1 3433   6.428   7.995   0.133  0.0000  0.0000  0.0000
 3434OM     OM1 3434   0.930   5.435   1.192  0.0000  0.0000  0.0000
 3435OM     OM1 3435   7.317   7.753   0.258  0.0000  0.0000  0.0000
 3436OM     OM1 3436   7.195   7.891   0.074  0.0000  0.0000  0.0000
 3437OM     OM1 3437   7.310   7.653   0.022  0.0000  0.0000  0.0000
 3438OM     OM1 3438   7.455   7.866   0.064  0.0000  0.0000  0.0000
 3439OM     OM1 3439   8.694   5.590   9.170  0.0000  0.0000  0.0000
 3440OM     OM1 3440   8.566   5.358   9.132  0.0000  0.0000  0.0000
 3441OM     OM1 3441   8.581   5.524   8.935  0.0000  0.0000  0.0000
 3442OM     OM1 3442   8.432   5.575   9.138  0.0000  0.0000  0.0000
 3443OM     OM1 3443   9.253   8.496   1.136  0.0000  0.0000  0.0000
 3444OM     OM1 3444   7.368   0.285   0.388  0.0000  0.0000  0.0000
 3445OM     OM1 3445   7.334   0.353   0.639  0.0000  0.0000  0.0000
 3446OM     OM1 3446   7.568   0.382   0.534  0.0000  0.0000  0.0000
 3447OM     OM1 3447   7.363   0.536   0.459  0.0000  0.0000  0.0000
 3448OM     OM1 3448   1.688   0.060   1.047  0.0000  0.0000  0.0000
 3449OM     OM1 3449   1.953   0.037   0.991  0.0000  0.0000  0.0000
 3450OM     OM1 3450   1.780   0.182   0.849  0.0000  0.0000  0.0000
 3451OM     OM1 3451   1.775   9.526   0.842  0.0000  0.0000  0.0000
 3452OM     OM1 3452   6.764   6.894   8.794  0.0000  0.0000  0.0000
 3453OM     OM1 3453   6.691   6.736   8.600  0.0000  0.0000  0.0000
 3454OM     OM1 3454   4.742   1.319   0.508  0.0000  0.0000  0.0000
 3455OM     OM1 3455   4.930   1.153   0.412  0.0000  0.0000  0.0000
 3456OM     OM1 3456   4.786   1.099   0.639  0.0000  0.0000  0.0000
 3457OM     OM1 3457   9.175   8.823   0.323  0.0000  0.0000  0.0000
 3458OM     OM1 3458   9.546   8.573   0.158  0.0000  0.0000  0.0000
 3459OM     OM1 3459   9.300   8.734   0.528  0.0000  0.0000  0.0000
 3460OM     OM1 3460   3.045   8.973   8.553  0.0000  0.0000  0.0000
 3461OM     OM1 3461   2.927   9.190   8.568  0.0000  0.0000  0.0000
 3462OM     OM1 3462   3.164   9.183   8.669  0.0000  0.0000  0.0000
 3463OM     OM1 3463   3.155   9.173   8.418  0.0000  0.0000  0.0000
 3464OM     OM1 3464   3.692   0.630   0.828  0.0000  0.0000  0.0000
 3465OM     OM1 3465   3.659   0.427   0.660  0.0000  0.0000  0.0000
 3466OM     OM1 3466   3.853   0.616   0.626  0.0000  0.0000  0.0000
 3467OM     OM1 3467   3.609   0.661   0.574  0.0000  0.0000  0.0000
 3468OM     OM1 3468   4.320   4.451   8.581  0.0000  0.0000  0.0000
 3469OM     OM1 3469   4.483   4.622   8.688  0.0000  0.0000  0.0000
 3470OM     OM1 3470   4.283   4.711   8.549  0.0000  0.0000  0.0000
 3471OM     OM1 3471   5.439   0.647   0.224  0.0000  0.0000  0.0000
 3472OM     OM1 3472   5.487   0.898   0.171  0.0000  0.0000  0.0000
 3473OM     OM1 3473   5.556   0.731   9.605  0.0000  0.0000  0.0000
 3474OM     OM1 3474   5.295   0.759   0.037  0.0000  0.0000  0.0000
 3475OM     OM1 3475   0.992   5.637   1.033  0.0000  0.0000  0.0000
 3476OM     OM1 3476   0.789   5.670   1.189  0.0000  0.0000  0.0000
 3477OM     OM1 3477   4.621   2.904   8.502  0.0000  0.0000  0.0000
 3478OM     OM1 3478   4.824   2.831   8.351  0.0000  0.0000  0.0000
 3479OM     OM1 3479   4.718   3.059   8.307  0.0000  0.0000  0.0000
 3480OM     OM1 3480   4.520   6.988   8.983  0.0000  0.0000  0.0000
 3481OM     OM1 3481   4.426   6.861   9.193  0.0000  0.0000  0.0000
 3482OM     OM1 3482   4.589   7.057   9.224  0.0000  0.0000  0.0000
 3483OM     OM1 3483   4.681   6.832   9.117  0.0000  0.0000  0.0000
 3484OM     OM1 3484   3.507   9.505   8.725  0.0000  0.0000  0.0000
 3485OM     OM1 3485   3.471   0.164   8.684  0.0000  0.0000  0.0000
 3486OM     OM1 3486   2.650   4.884   8.480  0.0000  0.0000  0.0000
 3487OM     OM1 3487   2.449   5.035   8.525  0.0000  0.0000  0.0000
 3488OM     OM1 3488   2.672   5.156   8.475  0.0000  0.0000  0.0000
 3489OM     OM1 3489   2.782   3.833   8.552  0.0000  0.0000  0.0000
 3490OM     OM1 3490   2.689   3.655   8.378  0.0000  0.0000  0.0000
 3491OM     OM1 3491   2.531   3.799   8.514  0.0000  0.0000  0.0000
 3492OM     OM1 3492   0.433   3.240   1.361  0.0000  0.0000  0.0000
 3493OM     OM1 3493   0.535   3.479   1.280  0.0000  0.0000  0.0000
 3494OM     OM1 3494   2.929   4.274   1.205  0.0000  0.0000  0.0000
 3495OM     OM1 3495   3.672   6.381   0.660  0.0000  0.0000  0.0000
 3496OM     OM1 3496   3.663   6.132   0.670  0.0000  0.0000  0.0000
 3497OM     OM1 3497   3.493   6.258   0.823  0.0000  0.0000  0.0000
 3498OM     OM1 3498   3.466   6.255   0.561  0.0000  0.0000  0.0000
 3499OM     OM1 3499   7.591   1.873   1.079  0.0000  0.0000  0.0000
 3500OM     OM1 3500   7.578   1.620   1.158  0.0000  0.0000  0.0000
 3501OM     OM1 3501   7.506   1.677   0.927  0.0000  0.0000  0.0000
 3502OM     OM1 3502   7.767   1.708   0.998  0.0000  0.0000  0.0000
 3503OM     OM1 3503   8.274   7.996   1.028  0.0000  0.0000  0.0000
 3504OM     OM1 3504   8.155   7.789   1.145  0.0000  0.0000  0.0000
 3505OM     OM1 3505   8.257   7.773   0.906  0.0000  0.0000  0.0000
 3506OM     OM1 3506   5.438   2.234   9.591  0.0000  0.0000  0.0000
 3507OM     OM1 3507   5.263   2.052   0.044  0.0000  0.0000  0.0000
 3508OM     OM1 3508   5.196   2.277   9.525  0.0000  0.0000  0.0000
 3509OM     OM1 3509   5.262   2.261   0.186  0.0000  0.0000  0.0000
 3510OM     OM1 3510   7.796   2.884   0.508  0.0000  0.0000  0.0000
 3511OM     OM1 3511   7.568   2.768   0.551  0.0000  0.0000  0.0000
 3512OM     OM1 3512   7.623   2.851   0.305  0.0000  0.0000  0.0000
 3513OM     OM1 3513   7.574   3.021   0.490  0.0000  0.0000  0.0000
 3514OM     OM1 3514   1.372   0.391   0.646  0.0000  0.0000  0.0000
 3515OM     OM1 3515   1.365   0.142   0.555  0.0000  0.0000  0.0000
 3516OM     OM1 3516   7.641   2.825   9.169  0.0000  0.0000  0.0000
 3517OM     OM1 3517   7.744   2.855   9.412  0.0000  0.0000  0.0000
 3518OM     OM1 3518   0.182   8.615   8.400  0.0000  0.0000  0.0000
 3519OM     OM1 3519   0.108   8.864   8.382  0.0000  0.0000  0.0000
 3520OM     OM1 3520   9.553   8.692   8.495  0.0000  0.0000  0.0000
 3521OM     OM1 3521   2.453   7.978   8.552  0.0000  0.0000  0.0000
 3522OM     OM1 3522   2.303   7.782   8.616  0.0000  0.0000  0.0000
 3523OM     OM1 3523   2.558   7.781   8.692  0.0000  0.0000  0.0000
 3524OM     OM1 3524   2.499   7.737   8.446  0.0000  0.0000  0.0000
 3525OM     OM1 3525   4.580   2.679   1.244  0.0000  0.0000  0.0000
 3526OM     OM1 3526   4.741   2.522   1.104  0.0000  0.0000  0.0000
 3527OM     OM1 3527   4.565   2.420   1.260  0.0000  0.0000  0.0000
 3528OM     OM1 3528   8.112   1.336   8.957  0.0000  0.0000  0.0000
 3529OM     OM1 3529   8.344   1.290   8.872  0.0000  0.0000  0.0000
 3530OM     OM1 3530   8.141   1.141   8.784  0.0000  0.0000  0.0000
 3531OM     OM1 3531   7.891   0.536   8.704  0.0000  0.0000  0.0000
 3532OM     OM1 3532   8.076   0.406   8.819  0.0000  0.0000  0.0000
 3533OM     OM1 3533   8.114   0.655   8.804  0.0000  0.0000  0.0000
 3534OM     OM1 3534   7.927   0.591   8.957  0.0000  0.0000  0.0000
 3535OM     OM1 3535   3.237   0.546   8.507  0.0000  0.0000  0.0000
 3536OM     OM1 3536   3.419   0.352   8.519  0.0000  0.0000  0.0000
 3537OM     OM1 3537   3.262   0.378   8.309  0.0000  0.0000  0.0000
 3538OM     OM1 3538   2.252   0.993   0.905  0.0000  0.0000  0.0000
 3539OM     OM1 3539   2.355   0.824   1.082  0.0000  0.0000  0.0000
 3540OM     OM1 3540   2.195   1.016   1.162  0.0000  0.0000  0.0000
 3541OM     OM1 3541   2.426   1.081   1.078  0.0000  0.0000  0.0000
 3542OM     OM1 3542   7.970   0.131   1.115  0.0000  0.0000  0.0000
 3543OM     OM1 3543   7.719   0.113   1.173  0.0000  0.0000  0.0000
 3544OM     OM1 3544   7.814   0.335   1.058  0.0000  0.0000  0.0000
 3545OM     OM1 3545   7.774   0.118   0.925  0.0000  0.0000  0.0000
 3546OM     OM1 3546   6.874   3.780   9.535  0.0000  0.0000  0.0000
 3547OM     OM1 3547   6.692   3.967   9.555  0.0000  0.0000  0.0000
 3548OM     OM1 3548   6.925   3.995   0.079  0.0000  0.0000  0.0000
 3549OM     OM1 3549   8.583   9.127   1.267  0.0000  0.0000  0.0000
 3550OM     OM1 3550   8.475   9.154   1.048  0.0000  0.0000  0.0000
 3551OM     OM1 3551   8.615   9.350   1.112  0.0000  0.0000  0.0000
 3552OM     OM1 3552   8.755   9.150   1.058  0.0000  0.0000  0.0000
 3553OM     OM1 3553   2.010   4.147   9.596  0.0000  0.0000  0.0000
 3554OM     OM1 3554   1.998   4.016   9.376  0.0000  0.0000  0.0000
 3555OM     OM1 3555   0.770   5.998   0.284  0.0000  0.0000  0.0000
 3556OM     OM1 3556   0.961   5.807   0.308  0.0000  0.0000  0.0000
 3557OM     OM1 3557   0.964   5.988   0.117  0.0000  0.0000  0.0000
 3558OM     OM1 3558   0.787   5.795   0.121  0.0000  0.0000  0.0000
 3559OM     OM1 3559   3.914   2.765   1.333  0.0000  0.0000  0.0000
 3560OM     OM1 3560   3.929   3.021   1.318  0.0000  0.0000  0.0000
 3561OM     OM1 3561   3.697   2.917   1.282  0.0000  0.0000  0.0000
 3562OM     OM1 3562   4.230   4.324   9.506  0.0000  0.0000  0.0000
 3563OM     OM1 3563   4.184   3.976   0.014  0.0000  0.0000  0.0000
 3564OM     OM1 3564   4.207   4.196   0.130  0.0000  0.0000  0.0000
 3565OM     OM1 3565   4.440   4.303   0.068  0.0000  0.0000  0.0000
 3566OM     OM1 3566   6.175   7.541   8.459  0.0000  0.0000  0.0000
 3567OM     OM1 3567   6.042   7.743   8.352  0.0000  0.0000  0.0000
 3568OM     OM1 3568   6.048   7.507   8.237  0.0000  0.0000  0.0000
 3569OM     OM1 3569   7.528   6.498   8.259  0.0000  0.0000  0.0000
 3570OM     OM1 3570   7.634   6.747   8.258  0.0000  0.0000  0.0000
 3571OM     OM1 3571   6.176   9.498   8.781  0.0000  0.0000  0.0000
 3572OM     OM1 3572   5.951   9.413   8.659  0.0000  0.0000  0.0000
 3573OM     OM1 3573   5.950   9.524   8.901  0.0000  0.0000  0.0000
 3574OM     OM1 3574   6.041   9.293   8.873  0.0000  0.0000  0.0000
 3575OM     OM1 3575   4.983   0.938   0.290  0.0000  0.0000  0.0000
 3576OM     OM1 3576   5.127   1.145   0.231  0.0000  0.0000  0.0000
 3577OM     OM1 3577   4.434   7.156   8.796  0.0000  0.0000  0.0000
 3578OM     OM1 3578   4.771   7.403   9.003  0.0000  0.0000  0.0000
 3579OM     OM1 3579   4.563   7.289   9.120  0.0000  0.0000  0.0000
 3580OM     OM1 3580   9.191   8.805   9.007  0.0000  0.0000  0.0000
 3581OM     OM1 3581   9.222   8.587   8.866  0.0000  0.0000  0.0000
 3582OM     OM1 3582   9.309   8.583   9.109  0.0000  0.0000  0.0000
 3583OM     OM1 3583   7.144   8.099   0.228  0.0000  0.0000  0.0000
 3584OM     OM1 3584   6.710   5.769   0.412  0.0000  0.0000  0.0000
 3585OM     OM1 3585   6.786   5.753   0.659  0.0000  0.0000  0.0000
 3586OM     OM1 3586   6.961   5.745   0.464  0.0000  0.0000  0.0000
 3587OM     OM1 3587   5.683   1.072   1.029  0.0000  0.0000  0.0000
 3588OM     OM1 3588   5.920   1.063   1.111  0.0000  0.0000  0.0000
 3589OM     OM1 3589   5.946   0.821   1.001  0.0000  0.0000  0.0000
 3590OM     OM1 3590   6.096   1.011   0.913  0.0000  0.0000  0.0000
 3591OM     OM1 3591   4.277   4.356   0.746  0.0000  0.0000  0.0000
 3592OM     OM1 3592   4.091   4.518   0.815  0.0000  0.0000  0.0000
 3593OM     OM1 3593   4.024   4.299   0.690  0.0000  0.0000  0.0000
 3594OM     OM1 3594   4.140   4.496   0.560  0.0000  0.0000  0.0000
 3595OM     OM1 3595   2.484   5.449   1.124  0.0000  0.0000  0.0000
 3596OM     OM1 3596   2.742   5.424   1.093  0.0000  0.0000  0.0000
 3597OM     OM1 3597   2.577   5.227   1.028  0.0000  0.0000  0.0000
 3598OM     OM1 3598   8.707   2.280   9.419  0.0000  0.0000  0.0000
 3599OM     OM1 3599   8.952   2.282   9.550  0.0000  0.0000  0.0000
 3600OM     OM1 3600   8.743   2.163   0.042  0.0000  0.0000  0.0000
 3601OM     OM1 3601   8.743   9.577   8.277  0.0000  0.0000  0.0000
 3602OM     OM1 3602   6.061   3.420   1.207  0.0000  0.0000  0.0000
 3603OM     OM1 3603   5.935   3.186   1.253  0.0000  0.0000  0.0000
 3604OM     OM1 3604   6.182   3.197   1.235  0.0000  0.0000  0.0000
 3605OM     OM1 3605   8.800   8.594   0.088  0.0000  0.0000  0.0000
 3606OM     OM1 3606   8.562   8.556   0.197  0.0000  0.0000  0.0000
 3607OM     OM1 3607   8.659   8.362   0.067  0.0000  0.0000  0.0000
 3608OM     OM1 3608   8.596   8.571   9.544  0.0000  0.0000  0.0000
 3609OM     OM1 3609   7.204   6.775   9.244  0.0000  0.0000  0.0000
 3610OM     OM1 3610   7.034   6.684   9.421  0.0000  0.0000  0.0000
 3611OM     OM1 3611   7.155   6.922   9.454  0.0000  0.0000  0.0000
 3612OM     OM1 3612   7.289   6.701   9.479  0.0000  0.0000  0.0000
 3613OM     OM1 3613   3.795   7.345   0.056  0.0000  0.0000  0.0000
 3614OM     OM1 3614   3.649   7.545   9.592  0.0000  0.0000  0.0000
 3615OM     OM1 3615   3.633   7.448   0.234  0.0000  0.0000  0.0000
 3616OM     OM1 3616   3.538   7.317   0.030  0.0000  0.0000  0.0000
 3617OM     OM1 3617   8.641   3.241   0.316  0.0000  0.0000  0.0000
 3618OM     OM1 3618   8.164   3.225   0.198  0.0000  0.0000  0.0000
 3619OM     OM1 3619   8.373   3.237   0.023  0.0000  0.0000  0.0000
 3620OM     OM1 3620   7.672   4.451   8.657  0.0000  0.0000  0.0000
 3621OM     OM1 3621   7.546   4.525   8.884  0.0000  0.0000  0.0000
 3622OM     OM1 3622   7.576   4.277   8.818  0.0000  0.0000  0.0000
 3623OM     OM1 3623   3.726   4.475   1.076  0.0000  0.0000  0.0000
 3624OM     OM1 3624   3.468   4.525   1.030  0.0000  0.0000  0.0000
 3625OM     OM1 3625   3.228   4.492   1.135  0.0000  0.0000  0.0000
 3626OM     OM1 3626   3.654   4.714   1.045  0.0000  0.0000  0.0000
 3627OM     OM1 3627   2.893   8.233   8.319  0.0000  0.0000  0.0000
 3628OM     OM1 3628   2.690   8.597   8.411  0.0000  0.0000  0.0000
 3629OM     OM1 3629   5.328   3.403   0.077  0.0000  0.0000  0.0000
 3630OM     OM1 3630   5.337   3.150   0.107  0.0000  0.0000  0.0000
 3631OM     OM1 3631   5.463   3.597   9.583  0.0000  0.0000  0.0000
 3632OM     OM1 3632   0.230   5.480   8.525  0.0000  0.0000  0.0000
 3633OM     OM1 3633   0.189   5.259   8.412  0.0000  0.0000  0.0000
 3634OM     OM1 3634   0.249   5.260   8.676  0.0000  0.0000  0.0000
 3635OM     OM1 3635   0.024   5.398   8.276  0.0000  0.0000  0.0000
 3636OM     OM1 3636   0.315   0.356   0.301  0.0000  0.0000  0.0000
 3637OM     OM1 3637   0.461   0.534   0.432  0.0000  0.0000  0.0000
 3638OM     OM1 3638   9.325   4.412   0.741  0.0000  0.0000  0.0000
 3639OM     OM1 3639   9.580   4.408   0.796  0.0000  0.0000  0.0000
 3640OM     OM1 3640   9.437   4.206   0.856  0.0000  0.0000  0.0000
 3641OM     OM1 3641   9.481   4.251   0.604  0.0000  0.0000  0.0000
 3642OM     OM1 3642   0.367   1.396   1.195  0.0000  0.0000  0.0000
 3643OM     OM1 3643   0.576   1.232   1.191  0.0000  0.0000  0.0000
 3644OM     OM1 3644   7.654   3.360   1.305  0.0000  0.0000  0.0000
 3645OM     OM1 3645   7.636   3.604   1.422  0.0000  0.0000  0.0000
 3646OM     OM1 3646   4.928   4.236   0.012  0.0000  0.0000  0.0000
 3647OM     OM1 3647   4.842   4.158   0.240  0.0000  0.0000  0.0000
 3648OM     OM1 3648   4.703   4.339   0.103  0.0000  0.0000  0.0000
 3649OM     OM1 3649   2.746   6.360   9.582  0.0000  0.0000  0.0000
 3650OM     OM1 3650   2.794   6.148   9.421  0.0000  0.0000  0.0000
 3651OM     OM1 3651   4.651   7.011   0.222  0.0000  0.0000  0.0000
 3652OM     OM1 3652   4.607   7.007   0.475  0.0000  0.0000  0.0000
 3653OM     OM1 3653   4.415   6.933   0.322  0.0000  0.0000  0.0000
 3654OM     OM1 3654   6.001   7.365   9.108  0.0000  0.0000  0.0000
 3655OM     OM1 3655   5.828   7.693   9.453  0.0000  0.0000  0.0000
 3656OM     OM1 3656   5.935   7.592   9.004  0.0000  0.0000  0.0000
 3657OM     OM1 3657   5.869   7.538   9.244  0.0000  0.0000  0.0000
 3658OM     OM1 3658   7.127   4.451   9.420  0.0000  0.0000  0.0000
 3659OM     OM1 3659   7.165   4.373   9.172  0.0000  0.0000  0.0000
 3660OM     OM1 3660   7.309   4.273   9.352  0.0000  0.0000  0.0000
 3661OM     OM1 3661   7.324   3.971   9.058  0.0000  0.0000  0.0000
 3662OM     OM1 3662   7.426   4.071   8.835  0.0000  0.0000  0.0000
 3663OM     OM1 3663   7.286   4.223   8.996  0.0000  0.0000  0.0000
 3664OM     OM1 3664   3.515   7.306   9.220  0.0000  0.0000  0.0000
 3665OM     OM1 3665   3.376   7.267   9.434  0.0000  0.0000  0.0000
 3666OM     OM1 3666   3.253   7.358   9.222  0.0000  0.0000  0.0000
 3667OM     OM1 3667   3.350   7.106   9.231  0.0000  0.0000  0.0000
 3668OM     OM1 3668   9.306   1.015   1.020  0.0000  0.0000  0.0000
 3669OM     OM1 3669   9.346   1.235   0.896  0.0000  0.0000  0.0000
 3670OM     OM1 3670   9.132   1.107   0.838  0.0000  0.0000  0.0000
 3671OM     OM1 3671   9.152   1.233   1.063  0.0000  0.0000  0.0000
 3672OM     OM1 3672   2.693   4.324   0.482  0.0000  0.0000  0.0000
 3673OM     OM1 3673   2.596   4.128   0.337  0.0000  0.0000  0.0000
 3674OM     OM1 3674   2.694   4.078   0.575  0.0000  0.0000  0.0000
 3675OM     OM1 3675   2.845   4.155   0.363  0.0000  0.0000  0.0000
 3676OM     OM1 3676   7.559   9.266   1.342  0.0000  0.0000  0.0000
 3677OM     OM1 3677   7.583   9.003   1.304  0.0000  0.0000  0.0000
 3678OM     OM1 3678   8.179   1.808   8.569  0.0000  0.0000  0.0000
 3679OM     OM1 3679   8.347   1.983   8.493  0.0000  0.0000  0.0000
 3680OM     OM1 3680   8.171   2.044   8.678  0.0000  0.0000  0.0000
 3681OM     OM1 3681   3.411   1.369   8.940  0.0000  0.0000  0.0000
 3682OM     OM1 3682   3.368   1.325   9.194  0.0000  0.0000  0.0000
 3683OM     OM1 3683   8.911   0.934   9.127  0.0000  0.0000  0.0000
 3684OM     OM1 3684   8.666   0.864   9.236  0.0000  0.0000  0.0000
 3685OM     OM1 3685   8.720   1.101   9.156  0.0000  0.0000  0.0000
 3686OM     OM1 3686   8.434   2.318   1.159  0.0000  0.0000  0.0000
 3687OM     OM1 3687   8.417   2.285   0.896  0.0000  0.0000  0.0000
 3688OM     OM1 3688   2.577   1.909   8.687  0.0000  0.0000  0.0000
 3689OM     OM1 3689   2.728   1.803   8.870  0.0000  0.0000  0.0000
 3690OM     OM1 3690   2.744   1.706   8.630  0.0000  0.0000  0.0000
 3691OM     OM1 3691   6.406   4.490   0.347  0.0000  0.0000  0.0000
 3692OM     OM1 3692   6.625   4.633   0.389  0.0000  0.0000  0.0000
 3693OM     OM1 3693   6.635   4.419   0.236  0.0000  0.0000  0.0000
 3694OM     OM1 3694   9.546   1.582   0.006  0.0000  0.0000  0.0000
 3695OM     OM1 3695   0.003   1.492   0.248  0.0000  0.0000  0.0000
 3696OM     OM1 3696   0.070   1.728   0.164  0.0000  0.0000  0.0000
 3697OM     OM1 3697   9.423   1.687   0.216  0.0000  0.0000  0.0000
 3698OM     OM1 3698   9.386   5.642   0.686  0.0000  0.0000  0.0000
 3699OM     OM1 3699   9.451   5.543   0.449  0.0000  0.0000  0.0000
 3700OM     OM1 3700   9.582   5.743   0.538  0.0000  0.0000  0.0000
 3701OM     OM1 3701   9.321   5.766   0.479  0.0000  0.0000  0.0000
 3702OM     OM1 3702   4.958   6.414   8.971  0.0000  0.0000  0.0000
 3703OM     OM1 3703   4.843   6.620   9.116  0.0000  0.0000  0.0000
 3704OM     OM1 3704   0.242   4.217   9.370  0.0000  0.0000  0.0000
 3705OM     OM1 3705   0.480   4.102   9.310  0.0000  0.0000  0.0000
 3706OM     OM1 3706   0.275   3.955   9.386  0.0000  0.0000  0.0000
 3707OM     OM1 3707   0.405   4.122   9.548  0.0000  0.0000  0.0000
 3708OM     OM1 3708   8.748   5.770   0.711  0.0000  0.0000  0.0000
 3709OM     OM1 3709   8.671   5.551   0.804  0.0000  0.0000  0.0000
 3710OM     OM1 3710   8.642   5.626   1.049  0.0000  0.0000  0.0000
 3711OM     OM1 3711   8.482   5.434   0.929  0.0000  0.0000  0.0000
 3712OM     OM1 3712   2.482   0.247   0.768  0.0000  0.0000  0.0000
 3713OM     OM1 3713   2.248   0.298   0.674  0.0000  0.0000  0.0000
 3714OM     OM1 3714   2.553   0.105   0.975  0.0000  0.0000  0.0000
 3715OM     OM1 3715   2.405   0.163   0.526  0.0000  0.0000  0.0000
 3716OM     OM1 3716   1.717   2.208   0.810  0.0000  0.0000  0.0000
 3717OM     OM1 3717   1.616   1.997   0.933  0.0000  0.0000  0.0000
 3718OM     OM1 3718   1.612   2.007   0.680  0.0000  0.0000  0.0000
 3719OM     OM1 3719   1.459   2.176   0.824  0.0000  0.0000  0.0000
 3720OM     OM1 3720   5.381   8.268   9.602  0.0000  0.0000  0.0000
 3721OM     OM1 3721   5.596   8.380   0.092  0.0000  0.0000  0.0000
 3722OM     OM1 3722   5.497   8.185   0.226  0.0000  0.0000  0.0000
 3723OM     OM1 3723   5.850   4.032   9.488  0.0000  0.0000  0.0000
 3724OM     OM1 3724   5.712   4.256   9.544  0.0000  0.0000  0.0000
 3725OM     OM1 3725   5.971   4.241   9.560  0.0000  0.0000  0.0000
 3726OM     OM1 3726   0.403   2.787   0.951  0.0000  0.0000  0.0000
 3727OM     OM1 3727   0.312   2.699   1.174  0.0000  0.0000  0.0000
 3728OM     OM1 3728   6.478   6.311   9.586  0.0000  0.0000  0.0000
 3729OM     OM1 3729   6.544   6.566   9.519  0.0000  0.0000  0.0000
 3730OM     OM1 3730   6.497   6.125   0.158  0.0000  0.0000  0.0000
 3731OM     OM1 3731   6.561   6.080   9.519  0.0000  0.0000  0.0000
 3732OM     OM1 3732   6.484   1.483   0.948  0.0000  0.0000  0.0000
 3733OM     OM1 3733   6.547   1.737   0.984  0.0000  0.0000  0.0000
 3734OM     OM1 3734   6.323   1.669   0.875  0.0000  0.0000  0.0000
 3735OM     OM1 3735   6.371   1.639   1.138  0.0000  0.0000  0.0000
 3736OM     OM1 3736   3.186   6.964   8.255  0.0000  0.0000  0.0000
 3737OM     OM1 3737   3.280   6.827   8.442  0.0000  0.0000  0.0000
 3738OM     OM1 3738   5.378   8.966   1.274  0.0000  0.0000  0.0000
 3739OM     OM1 3739   5.403   9.078   1.055  0.0000  0.0000  0.0000
 3740OM     OM1 3740   5.146   8.966   1.170  0.0000  0.0000  0.0000
 3741OM     OM1 3741   8.070   4.402   0.622  0.0000  0.0000  0.0000
 3742OM     OM1 3742   8.218   4.213   0.524  0.0000  0.0000  0.0000
 3743OM     OM1 3743   8.228   4.453   0.427  0.0000  0.0000  0.0000
 3744OM     OM1 3744   8.020   4.306   0.380  0.0000  0.0000  0.0000
 3745OM     OM1 3745   6.441   4.054   8.954  0.0000  0.0000  0.0000
 3746OM     OM1 3746   6.505   4.032   8.702  0.0000  0.0000  0.0000
 3747OM     OM1 3747   6.562   3.846   8.882  0.0000  0.0000  0.0000
 3748OM     OM1 3748   6.315   3.875   8.807  0.0000  0.0000  0.0000
 3749OM     OM1 3749   4.666   2.688   8.625  0.0000  0.0000  0.0000
 3750OM     OM1 3750   4.520   2.888   8.753  0.0000  0.0000  0.0000
 3751OM     OM1 3751   5.180   4.093   8.457  0.0000  0.0000  0.0000
 3752OM     OM1 3752   4.923   4.126   8.451  0.0000  0.0000  0.0000
 3753OM     OM1 3753   5.042   4.124   8.677  0.0000  0.0000  0.0000
 3754OM     OM1 3754   5.085   4.330   8.516  0.0000  0.0000  0.0000
 3755OM     OM1 3755   9.381   2.641   0.435  0.0000  0.0000  0.0000
 3756OM     OM1 3756   9.247   2.418   0.363  0.0000  0.0000  0.0000
 3757OM     OM1 3757   9.211   2.521   0.599  0.0000  0.0000  0.0000
 3758OM     OM1 3758   9.438   2.419   0.551  0.0000  0.0000  0.0000
 3759OM     OM1 3759   1.359   9.198   0.372  0.0000  0.0000  0.0000
 3760OM     OM1 3760   1.350   8.864   0.211  0.0000  0.0000  0.0000
 3761OM     OM1 3761   1.403   8.996   9.604  0.0000  0.0000  0.0000
 3762OM     OM1 3762   8.998   1.642   0.831  0.0000  0.0000  0.0000
 3763OM     OM1 3763   8.998   1.401   0.932  0.0000  0.0000  0.0000
 3764OM     OM1 3764   2.654   3.690   9.547  0.0000  0.0000  0.0000
 3765OM     OM1 3765   2.732   3.617   0.180  0.0000  0.0000  0.0000
 3766OM     OM1 3766   4.017   3.842   8.806  0.0000  0.0000  0.0000
 3767OM     OM1 3767   4.203   4.017   8.876  0.0000  0.0000  0.0000
 3768OM     OM1 3768   4.263   3.764   8.813  0.0000  0.0000  0.0000
 3769OM     OM1 3769   4.184   3.942   8.634  0.0000  0.0000  0.0000
 3770OM     OM1 3770   7.345   5.705   9.154  0.0000  0.0000  0.0000
 3771OM     OM1 3771   2.109   8.040   1.297  0.0000  0.0000  0.0000
 3772OM     OM1 3772   1.865   8.104   1.232  0.0000  0.0000  0.0000
 3773OM     OM1 3773   9.175   6.865   1.186  0.0000  0.0000  0.0000
 3774OM     OM1 3774   9.347   6.878   0.996  0.0000  0.0000  0.0000
 3775OM     OM1 3775   9.339   6.659   1.140  0.0000  0.0000  0.0000
 3776OM     OM1 3776   7.322   5.789   8.358  0.0000  0.0000  0.0000
 3777OM     OM1 3777   7.447   5.692   8.567  0.0000  0.0000  0.0000
 3778OM     OM1 3778   7.463   5.947   8.531  0.0000  0.0000  0.0000
 3779OM     OM1 3779   7.590   5.786   8.379  0.0000  0.0000  0.0000
 3780OM     OM1 3780   8.554   5.989   0.395  0.0000  0.0000  0.0000
 3781OM     OM1 3781   8.563   5.882   0.148  0.0000  0.0000  0.0000
 3782OM     OM1 3782   8.604   5.747   0.357  0.0000  0.0000  0.0000
 3783OM     OM1 3783   8.360   5.862   0.330  0.0000  0.0000  0.0000
 3784OM     OM1 3784   5.031   8.772   0.952  0.0000  0.0000  0.0000
 3785OM     OM1 3785   5.021   8.838   0.704  0.0000  0.0000  0.0000
 3786OM     OM1 3786   4.928   9.000   0.890  0.0000  0.0000  0.0000
 3787OM     OM1 3787   6.952   7.277   0.585  0.0000  0.0000  0.0000
 3788OM     OM1 3788   6.702   7.231   0.544  0.0000  0.0000  0.0000
 3789OM     OM1 3789   6.785   7.347   0.772  0.0000  0.0000  0.0000
 3790OM     OM1 3790   2.344   9.335   0.328  0.0000  0.0000  0.0000
 3791OM     OM1 3791   2.261   9.564   0.433  0.0000  0.0000  0.0000
 3792OM     OM1 3792   2.110   9.424   0.289  0.0000  0.0000  0.0000
 3793OM     OM1 3793   2.915   8.316   8.795  0.0000  0.0000  0.0000
 3794OM     OM1 3794   2.682   8.316   8.675  0.0000  0.0000  0.0000
 3795OM     OM1 3795   2.775   8.103   8.782  0.0000  0.0000  0.0000
 3796OM     OM1 3796   2.701   8.334   8.929  0.0000  0.0000  0.0000
 3797OM     OM1 3797   2.625   6.555   0.411  0.0000  0.0000  0.0000
 3798OM     OM1 3798   2.824   6.391   0.390  0.0000  0.0000  0.0000
 3799OM     OM1 3799   2.766   6.528   0.178  0.0000  0.0000  0.0000
 3800OM     OM1 3800   2.606   6.343   0.258  0.0000  0.0000  0.0000
 3801OM     OM1 3801   1.738   4.324   0.671  0.0000  0.0000  0.0000
 3802OM     OM1 3802   1.496   4.277   0.759  0.0000  0.0000  0.0000
 3803OM     OM1 3803   1.569   4.517   0.674  0.0000  0.0000  0.0000
 3804OM     OM1 3804   1.662   4.422   0.894  0.0000  0.0000  0.0000
 3805OM     OM1 3805   6.780   7.474   0.542  0.0000  0.0000  0.0000
 3806OM     OM1 3806   6.490   7.316   0.660  0.0000  0.0000  0.0000
 3807OM     OM1 3807   6.459   7.112   0.505  0.0000  0.0000  0.0000
 3808OM     OM1 3808   9.323   1.561   8.987  0.0000  0.0000  0.0000
 3809OM     OM1 3809   9.215   1.804   8.964  0.0000  0.0000  0.0000
 3810OM     OM1 3810   9.478   1.764   8.971  0.0000  0.0000  0.0000
 3811OM     OM1 3811   9.326   1.730   9.183  0.0000  0.0000  0.0000
 3812OM     OM1 3812   1.189   1.890   9.198  0.0000  0.0000  0.0000
 3813OM     OM1 3813   1.043   1.595   9.487  0.0000  0.0000  0.0000
 3814OM     OM1 3814   1.303   1.645   9.466  0.0000  0.0000  0.0000
 3815OM     OM1 3815   1.140   1.839   9.447  0.0000  0.0000  0.0000
 3816OM     OM1 3816   4.692   5.773   8.963  0.0000  0.0000  0.0000
 3817OM     OM1 3817   4.472   5.718   9.077  0.0000  0.0000  0.0000
 3818OM     OM1 3818   4.659   5.834   9.218  0.0000  0.0000  0.0000
 3819OM     OM1 3819   7.875   1.574   9.526  0.0000  0.0000  0.0000
 3820OM     OM1 3820   7.897   1.764   9.332  0.0000  0.0000  0.0000
 3821OM     OM1 3821   7.796   1.539   9.282  0.0000  0.0000  0.0000
 3822OM     OM1 3822   7.665   1.715   9.430  0.0000  0.0000  0.0000
 3823OM     OM1 3823   9.344   0.776   0.813  0.0000  0.0000  0.0000
 3824OM     OM1 3824   9.439   0.819   0.581  0.0000  0.0000  0.0000
 3825OM     OM1 3825   9.182   0.762   0.604  0.0000  0.0000  0.0000
 3826OM     OM1 3826   1.507   9.592   0.398  0.0000  0.0000  0.0000
 3827OM     OM1 3827   1.703   9.424   0.380  0.0000  0.0000  0.0000
 3828OM     OM1 3828   1.717   0.048   0.251  0.0000  0.0000  0.0000
 3829OM     OM1 3829   7.395   3.095   0.311  0.0000  0.0000  0.0000
 3830OM     OM1 3830   7.466   3.099   0.066  0.0000  0.0000  0.0000
 3831OM     OM1 3831   7.222   3.042   0.102  0.0000  0.0000  0.0000
 3832OM     OM1 3832   8.250   7.981   8.362  0.0000  0.0000  0.0000
 3833OM     OM1 3833   8.232   8.104   8.726  0.0000  0.0000  0.0000
 3834OM     OM1 3834   8.289   7.729   8.341  0.0000  0.0000  0.0000
 3835OM     OM1 3835   8.313   1.926   8.861  0.0000  0.0000  0.0000
 3836OM     OM1 3836   8.494   1.724   8.883  0.0000  0.0000  0.0000
 3837OM     OM1 3837   8.341   1.787   9.075  0.0000  0.0000  0.0000
 3838OM     OM1 3838   6.751   9.564   0.589  0.0000  0.0000  0.0000
 3839OM     OM1 3839   7.010   9.596   0.600  0.0000  0.0000  0.0000
 3840OM     OM1 3840   6.883   9.590   0.366  0.0000  0.0000  0.0000
 3841OM     OM1 3841   6.911   9.377   0.496  0.0000  0.0000  0.0000
 3842OM     OM1 3842   9.167   9.222   8.994  0.0000  0.0000  0.0000
 3843OM     OM1 3843   9.271   9.084   8.810  0.0000  0.0000  0.0000
 3844OM     OM1 3844   9.010   9.125   8.804  0.0000  0.0000  0.0000
 3845OM     OM1 3845   0.822   8.141   8.295  0.0000  0.0000  0.0000
 3846OM     OM1 3846   0.803   8.017   8.518  0.0000  0.0000  0.0000
 3847OM     OM1 3847   0.618   8.214   8.443  0.0000  0.0000  0.0000
 3848OM     OM1 3848   0.856   8.259   8.526  0.0000  0.0000  0.0000
 3849OM     OM1 3849   1.203   6.617   9.488  0.0000  0.0000  0.0000
 3850OM     OM1 3850   0.976   6.555   9.385  0.0000  0.0000  0.0000
 3851OM     OM1 3851   1.031   6.467   0.014  0.0000  0.0000  0.0000
 3852OM     OM1 3852   0.970   3.420   0.818  0.0000  0.0000  0.0000
 3853OM     OM1 3853   1.137   3.474   0.636  0.0000  0.0000  0.0000
 3854OM     OM1 3854   1.197   3.544   0.880  0.0000  0.0000  0.0000
 3855OM     OM1 3855   7.895   3.822   0.202  0.0000  0.0000  0.0000
 3856OM     OM1 3856   7.918   3.599   0.337  0.0000  0.0000  0.0000
 3857OM     OM1 3857   8.060   3.803   0.406  0.0000  0.0000  0.0000
 3858OM     OM1 3858   8.106   3.670   0.176  0.0000  0.0000  0.0000
 3859OM     OM1 3859   6.316   4.850   9.478  0.0000  0.0000  0.0000
 3860OM     OM1 3860   6.146   4.787   0.065  0.0000  0.0000  0.0000
 3861OM     OM1 3861   6.104   4.719   9.427  0.0000  0.0000  0.0000
 3862OM     OM1 3862   6.079   4.970   9.494  0.0000  0.0000  0.0000
 3863OM     OM1 3863   2.352   8.196   0.084  0.0000  0.0000  0.0000
 3864OM     OM1 3864   2.141   8.345   0.089  0.0000  0.0000  0.0000
 3865OM     OM1 3865   2.254   8.256   0.315  0.0000  0.0000  0.0000
 3866OM     OM1 3866   2.369   8.437   0.173  0.0000  0.0000  0.0000
 3867OM     OM1 3867   2.555   6.797   0.388  0.0000  0.0000  0.0000
 3868OM     OM1 3868   2.351   6.873   0.250  0.0000  0.0000  0.0000
 3869OM     OM1 3869   4.292   3.939   9.375  0.0000  0.0000  0.0000
 3870OM     OM1 3870   6.634   7.682   0.441  0.0000  0.0000  0.0000
 3871OM     OM1 3871   6.780   7.533   0.288  0.0000  0.0000  0.0000
 3872OM     OM1 3872   6.886   7.691   0.449  0.0000  0.0000  0.0000
 3873OM     OM1 3873   5.069   0.834   9.519  0.0000  0.0000  0.0000
 3874OM     OM1 3874   4.811   0.819   9.436  0.0000  0.0000  0.0000
 3875OM     OM1 3875   4.957   1.025   9.404  0.0000  0.0000  0.0000
 3876OM     OM1 3876   4.877   0.940   0.051  0.0000  0.0000  0.0000
 3877OM     OM1 3877   9.415   8.482   8.427  0.0000  0.0000  0.0000
 3878OM     OM1 3878   9.175   8.384   8.364  0.0000  0.0000  0.0000
 3879OM     OM1 3879   7.694   4.636   1.191  0.0000  0.0000  0.0000
 3880OM     OM1 3880   7.461   4.739   1.242  0.0000  0.0000  0.0000
 3881OM     OM1 3881   7.645   4.895   1.144  0.0000  0.0000  0.0000
 3882OM     OM1 3882   5.631   0.052   8.686  0.0000  0.0000  0.0000
 3883OM     OM1 3883   5.450   9.489   8.590  0.0000  0.0000  0.0000
 3884OM     OM1 3884   5.718   9.456   8.545  0.0000  0.0000  0.0000
 3885OM     OM1 3885   5.575   0.036   8.430  0.0000  0.0000  0.0000
 3886OM     OM1 3886   7.197   3.808   9.216  0.0000  0.0000  0.0000
 3887OM     OM1 3887   6.973   3.800   9.094  0.0000  0.0000  0.0000
 3888OM     OM1 3888   6.999   3.676   9.326  0.0000  0.0000  0.0000
 3889OM     OM1 3889   4.444   3.424   0.097  0.0000  0.0000  0.0000
 3890OM     OM1 3890   4.506   3.423   9.454  0.0000  0.0000  0.0000
 3891OM     OM1 3891   4.316   3.253   9.529  0.0000  0.0000  0.0000
 3892OM     OM1 3892   5.079   7.861   0.822  0.0000  0.0000  0.0000
 3893OM     OM1 3893   4.971   8.016   1.013  0.0000  0.0000  0.0000
 3894OM     OM1 3894   4.819   7.895   0.837  0.0000  0.0000  0.0000
 3895OM     OM1 3895   4.728   9.359   9.119  0.0000  0.0000  0.0000
 3896OM     OM1 3896   4.941   9.264   9.241  0.0000  0.0000  0.0000
 3897OM     OM1 3897   4.725   9.304   9.373  0.0000  0.0000  0.0000
 3898OM     OM1 3898   4.742   9.101   9.210  0.0000  0.0000  0.0000
 3899OM     OM1 3899   2.266   8.550   1.093  0.0000  0.0000  0.0000
 3900OM     OM1 3900   2.404   8.489   0.878  0.0000  0.0000  0.0000
 3901OM     OM1 3901   2.429   8.347   1.084  0.0000  0.0000  0.0000
 3902OM     OM1 3902   3.331   8.165   1.053  0.0000  0.0000  0.0000
 3903OM     OM1 3903   3.530   8.250   0.922  0.0000  0.0000  0.0000
 3904OM     OM1 3904   3.538   8.219   1.190  0.0000  0.0000  0.0000
 3905OM     OM1 3905   3.546   8.012   1.031  0.0000  0.0000  0.0000
 3906OM     OM1 3906   2.718   5.231   0.537  0.0000  0.0000  0.0000
 3907OM     OM1 3907   2.878   5.400   0.424  0.0000  0.0000  0.0000
 3908OM     OM1 3908   2.944   5.281   0.648  0.0000  0.0000  0.0000
 3909OM     OM1 3909   2.767   5.476   0.638  0.0000  0.0000  0.0000
 3910OM     OM1 3910   8.803   2.138   0.293  0.0000  0.0000  0.0000
 3911OM     OM1 3911   8.649   2.337   0.204  0.0000  0.0000  0.0000
 3912OM     OM1 3912   8.553   2.093   0.201  0.0000  0.0000  0.0000
 3913OM     OM1 3913   5.137   4.495   8.707  0.0000  0.0000  0.0000
 3914OM     OM1 3914   5.089   4.597   8.476  0.0000  0.0000  0.0000
 3915OM     OM1 3915   8.431   4.910   8.969  0.0000  0.0000  0.0000
 3916OM     OM1 3916   8.270   5.078   8.848  0.0000  0.0000  0.0000
 3917OM     OM1 3917   8.490   5.165   8.963  0.0000  0.0000  0.0000
 3918OM     OM1 3918   8.505   5.021   8.745  0.0000  0.0000  0.0000
 3919OM     OM1 3919   5.220   0.223   0.967  0.0000  0.0000  0.0000
 3920OM     OM1 3920   5.230   0.385   0.764  0.0000  0.0000  0.0000
 3921OM     OM1 3921   4.979   0.361   0.732  0.0000  0.0000  0.0000
 3922OM     OM1 3922   3.372   6.915   1.340  0.0000  0.0000  0.0000
 3923OM     OM1 3923   3.545   6.806   1.186  0.0000  0.0000  0.0000
 3924OM     OM1 3924   0.072   3.903   9.229  0.0000  0.0000  0.0000
 3925OM     OM1 3925   0.298   3.916   9.133  0.0000  0.0000  0.0000
 3926OM     OM1 3926   0.250   3.705   9.273  0.0000  0.0000  0.0000
 3927OM     OM1 3927   2.707   2.448   8.463  0.0000  0.0000  0.0000
 3928OM     OM1 3928   2.585   2.617   8.606  0.0000  0.0000  0.0000
 3929OM     OM1 3929   4.084   8.749   1.164  0.0000  0.0000  0.0000
 3930OM     OM1 3930   4.319   8.642   1.247  0.0000  0.0000  0.0000
 3931OM     OM1 3931   8.887   3.171   0.085  0.0000  0.0000  0.0000
 3932OM     OM1 3932   9.050   2.965   0.129  0.0000  0.0000  0.0000
 3933OM     OM1 3933   8.778   2.947   0.137  0.0000  0.0000  0.0000
 3934OM     OM1 3934   8.922   2.978   9.521  0.0000  0.0000  0.0000
 3935OM     OM1 3935   0.573   3.033   1.278  0.0000  0.0000  0.0000
 3936OM     OM1 3936   0.799   2.984   1.172  0.0000  0.0000  0.0000
 3937OM     OM1 3937   3.598   6.097   9.515  0.0000  0.0000  0.0000
 3938OM     OM1 3938   3.680   5.903   0.074  0.0000  0.0000  0.0000
 3939OM     OM1 3939   1.606   9.166   1.056  0.0000  0.0000  0.0000
 3940OM     OM1 3940   1.723   9.033   0.869  0.0000  0.0000  0.0000
 3941OM     OM1 3941   1.476   9.090   0.837  0.0000  0.0000  0.0000
 3942OM     OM1 3942   1.668   9.282   0.837  0.0000  0.0000  0.0000
 3943OM     OM1 3943   1.977   3.226   9.003  0.0000  0.0000  0.0000
 3944OM     OM1 3944   1.788   3.287   8.828  0.0000  0.0000  0.0000
 3945OM     OM1 3945   1.884   3.468   8.971  0.0000  0.0000  0.0000
 3946OM     OM1 3946   5.803   8.482   8.488  0.0000  0.0000  0.0000
 3947OM     OM1 3947   0.342   3.261   9.517  0.0000  0.0000  0.0000
 3948OM     OM1 3948   0.166   3.109   0.029  0.0000  0.0000  0.0000
 3949OM     OM1 3949   0.339   3.002   9.474  0.0000  0.0000  0.0000
 3950OM     OM1 3950   7.784   5.980   0.370  0.0000  0.0000  0.0000
 3951OM     OM1 3951   7.742   6.214   0.470  0.0000  0.0000  0.0000
 3952OM     OM1 3952   7.671   6.000   0.610  0.0000  0.0000  0.0000
 3953OM     OM1 3953   7.920   6.059   0.583  0.0000  0.0000  0.0000
 3954OM     OM1 3954   2.891   0.229   1.039  0.0000  0.0000  0.0000
 3955OM     OM1 3955   2.779   0.011   0.923  0.0000  0.0000  0.0000
 3956OM     OM1 3956   2.760   0.286   1.246  0.0000  0.0000  0.0000
 3957OM     OM1 3957   2.726   0.241   0.855  0.0000  0.0000  0.0000
 3958OM     OM1 3958   8.882   1.114   0.771  0.0000  0.0000  0.0000
 3959OM     OM1 3959   9.049   0.977   0.626  0.0000  0.0000  0.0000
 3960OM     OM1 3960   2.077   0.577   0.325  0.0000  0.0000  0.0000
 3961OM     OM1 3961   2.038   0.600   0.076  0.0000  0.0000  0.0000
 3962OM     OM1 3962   6.567   7.082   0.225  0.0000  0.0000  0.0000
 3963OM     OM1 3963   6.395   7.017   0.051  0.0000  0.0000  0.0000
 3964OM     OM1 3964   6.382   7.254   0.159  0.0000  0.0000  0.0000
 3965OM     OM1 3965   6.313   7.052   0.306  0.0000  0.0000  0.0000
 3966OM     OM1 3966   5.560   2.362   9.401  0.0000  0.0000  0.0000
 3967OM     OM1 3967   5.691   2.585   9.364  0.0000  0.0000  0.0000
 3968OM     OM1 3968   5.434   2.572   9.484  0.0000  0.0000  0.0000
 3969OM     OM1 3969   5.472   2.537   9.240  0.0000  0.0000  0.0000
 3970OM     OM1 3970   5.446   2.419   8.701  0.0000  0.0000  0.0000
 3971OM     OM1 3971   5.373   2.173   8.609  0.0000  0.0000  0.0000
 3972OM     OM1 3972   5.186   2.291   9.012  0.0000  0.0000  0.0000
 3973OM     OM1 3973   0.481   6.254   8.663  0.0000  0.0000  0.0000
 3974OM     OM1 3974   0.444   6.182   8.417  0.0000  0.0000  0.0000
 3975OM     OM1 3975   0.689   6.177   8.538  0.0000  0.0000  0.0000
 3976OM     OM1 3976   0.592   6.390   8.449  0.0000  0.0000  0.0000
 3977OM     OM1 3977   5.079   9.472   9.177  0.0000  0.0000  0.0000
 3978OM     OM1 3978   5.103   0.045   8.988  0.0000  0.0000  0.0000
 3979OM     OM1 3979   8.346   8.699   0.226  0.0000  0.0000  0.0000
 3980OM     OM1 3980   8.166   8.511   0.176  0.0000  0.0000  0.0000
 3981OM     OM1 3981   8.106   8.767   0.127  0.0000  0.0000  0.0000
 3982OM     OM1 3982   3.530   7.809   0.872  0.0000  0.0000  0.0000
 3983OM     OM1 3983   3.649   7.786   1.106  0.0000  0.0000  0.0000
 3984OM     OM1 3984   3.767   7.917   0.916  0.0000  0.0000  0.0000
 3985OM     OM1 3985   0.407   5.046   0.336  0.0000  0.0000  0.0000
 3986OM     OM1 3986   0.190   4.941   0.221  0.0000  0.0000  0.0000
 3987OM     OM1 3987   0.423   4.897   0.129  0.0000  0.0000  0.0000
 3988OM     OM1 3988   0.336   4.806   0.381  0.0000  0.0000  0.0000
 3989OM     OM1 3989   7.352   1.958   9.109  0.0000  0.0000  0.0000
 3990OM     OM1 3990   7.343   2.126   9.303  0.0000  0.0000  0.0000
 3991OM     OM1 3991   7.147   1.926   9.268  0.0000  0.0000  0.0000
 3992OM     OM1 3992   7.155   2.137   9.128  0.0000  0.0000  0.0000
 3993OM     OM1 3993   4.012   8.183   8.450  0.0000  0.0000  0.0000
 3994OM     OM1 3994   3.872   8.048   8.627  0.0000  0.0000  0.0000
 3995OM     OM1 3995   4.102   7.960   8.545  0.0000  0.0000  0.0000
 3996OM     OM1 3996   4.080   8.177   8.704  0.0000  0.0000  0.0000
 3997OM     OM1 3997   3.999   2.829   9.156  0.0000  0.0000  0.0000
 3998OM     OM1 3998   4.004   2.905   8.917  0.0000  0.0000  0.0000
 3999OM     OM1 3999   3.966   3.096   9.075  0.0000  0.0000  0.0000
 4000OM     OM1 4000   1.270   4.719   0.841  0.0000  0.0000  0.0000
 4001OM     OM1 4001   1.039   4.812   0.899  0.0000  0.0000  0.0000
 4002OM     OM1 4002   1.061   4.675   0.682  0.0000  0.0000  0.0000
 4003OM     OM1 4003   7.505   4.059   0.582  0.0000  0.0000  0.0000
 4004OM     OM1 4004   7.356   3.854   0.655  0.0000  0.0000  0.0000
 4005OM     OM1 4005   7.286   6.515   0.694  0.0000  0.0000  0.0000
 4006OM     OM1 4006   7.051   6.421   0.657  0.0000  0.0000  0.0000
 4007OM     OM1 4007   7.240   6.251   0.703  0.0000  0.0000  0.0000
 4008OM     OM1 4008   7.143   6.427   0.890  0.0000  0.0000  0.0000
 4009OM     OM1 4009   5.089   9.570   0.469  0.0000  0.0000  0.0000
 4010OM     OM1 4010   5.181   9.424   0.670  0.0000  0.0000  0.0000
 4011OM     OM1 4011   5.264   9.395   0.409  0.0000  0.0000  0.0000
 4012OM     OM1 4012   5.236   1.979   8.728  0.0000  0.0000  0.0000
 4013OM     OM1 4013   5.318   1.942   8.497  0.0000  0.0000  0.0000
 4014OM     OM1 4014   2.765   0.020   1.232  0.0000  0.0000  0.0000
 4015OM     OM1 4015   2.844   9.393   1.140  0.0000  0.0000  0.0000
 4016OM     OM1 4016   2.609   9.418   1.273  0.0000  0.0000  0.0000
 4017OM     OM1 4017   1.182   0.401   8.454  0.0000  0.0000  0.0000
 4018OM     OM1 4018   1.350   0.320   8.279  0.0000  0.0000  0.0000
 4019OM     OM1 4019   0.021   8.428   0.357  0.0000  0.0000  0.0000
 4020OM     OM1 4020   0.112   8.213   0.489  0.0000  0.0000  0.0000
 4021OM     OM1 4021   0.018   8.201   0.243  0.0000  0.0000  0.0000
 4022OM     OM1 4022   7.795   6.058   1.042  0.0000  0.0000  0.0000
 4023OM     OM1 4023   7.582   6.332   1.176  0.0000  0.0000  0.0000
 4024OM     OM1 4024   7.575   6.421   0.937  0.0000  0.0000  0.0000
 4025OM     OM1 4025   7.562   6.151   0.996  0.0000  0.0000  0.0000
 4026OM     OM1 4026   7.147   2.925   9.201  0.0000  0.0000  0.0000
 4027OM     OM1 4027   7.170   2.972   8.944  0.0000  0.0000  0.0000
 4028OM     OM1 4028   3.404   0.894   1.107  0.0000  0.0000  0.0000
 4029OM     OM1 4029   3.658   0.963   1.178  0.0000  0.0000  0.0000
 4030OM     OM1 4030   5.526   5.468   8.722  0.0000  0.0000  0.0000
 4031OM     OM1 4031   5.309   5.237   8.382  0.0000  0.0000  0.0000
 4032OM     OM1 4032   5.482   5.388   8.247  0.0000  0.0000  0.0000
 4033OM     OM1 4033   3.285   9.022   1.401  0.0000  0.0000  0.0000
 4034OM     OM1 4034   3.111   9.077   1.224  0.0000  0.0000  0.0000
 4035OM     OM1 4035   2.777   4.298   0.156  0.0000  0.0000  0.0000
 4036OM     OM1 4036   2.964   4.730   0.053  0.0000  0.0000  0.0000
 4037OM     OM1 4037   2.835   4.388   9.527  0.0000  0.0000  0.0000
 4038OM     OM1 4038   2.792   4.554   0.130  0.0000  0.0000  0.0000
 4039OM     OM1 4039   6.088   5.803   9.134  0.0000  0.0000  0.0000
 4040OM     OM1 4040   5.947   5.633   9.270  0.0000  0.0000  0.0000
 4041OM     OM1 4041   0.719   0.801   1.234  0.0000  0.0000  0.0000
 4042OM     OM1 4042   0.509   0.684   1.150  0.0000  0.0000  0.0000
 4043OM     OM1 4043   6.830   0.555   9.135  0.0000  0.0000  0.0000
 4044OM     OM1 4044   6.798   0.309   9.065  0.0000  0.0000  0.0000
 4045OM     OM1 4045   7.037   0.397   9.151  0.0000  0.0000  0.0000
 4046OM     OM1 4046   5.162   6.574   0.490  0.0000  0.0000  0.0000
 4047OM     OM1 4047   5.277   6.501   0.272  0.0000  0.0000  0.0000
 4048OM     OM1 4048   5.189   6.317   0.434  0.0000  0.0000  0.0000
 4049OM     OM1 4049   0.150   2.162   1.163  0.0000  0.0000  0.0000
 4050OM     OM1 4050   0.204   2.374   1.285  0.0000  0.0000  0.0000
 4051OM     OM1 4051   9.582   2.224   1.339  0.0000  0.0000  0.0000
 4052OM     OM1 4052   0.012   2.384   1.121  0.0000  0.0000  0.0000
 4053OM     OM1 4053   2.002   1.706   8.651  0.0000  0.0000  0.0000
 4054OM     OM1 4054   2.002   1.439   8.714  0.0000  0.0000  0.0000
 4055OM     OM1 4055   1.779   1.580   8.708  0.0000  0.0000  0.0000
 4056OM     OM1 4056   5.626   7.762   8.714  0.0000  0.0000  0.0000
 4057OM     OM1 4057   5.703   7.904   8.497  0.0000  0.0000  0.0000
 4058OM     OM1 4058   5.846   7.899   8.720  0.0000  0.0000  0.0000
 4059OM     OM1 4059   3.842   3.778   8.618  0.0000  0.0000  0.0000
 4060OM     OM1 4060   3.759   3.873   8.386  0.0000  0.0000  0.0000
 4061OM     OM1 4061   3.611   3.705   8.502  0.0000  0.0000  0.0000
 4062OM     OM1 4062   8.241   6.243   8.836  0.0000  0.0000  0.0000
 4063OM     OM1 4063   8.056   6.289   8.660  0.0000  0.0000  0.0000
 4064OM     OM1 4064   8.169   6.050   8.680  0.0000  0.0000  0.0000
 4065OM     OM1 4065   8.006   6.132   8.862  0.0000  0.0000  0.0000
 4066OM     OM1 4066   1.044   9.142   0.851  0.0000  0.0000  0.0000
 4067OM     OM1 4067   1.019   9.000   0.625  0.0000  0.0000  0.0000
 4068OM     OM1 4068   0.920   9.337   0.972  0.0000  0.0000  0.0000
 4069OM     OM1 4069   4.639   7.135   0.705  0.0000  0.0000  0.0000
 4070OM     OM1 4070   4.206   1.808   9.158  0.0000  0.0000  0.0000
 4071OM     OM1 4071   3.967   1.896   9.102  0.0000  0.0000  0.0000
 4072OM     OM1 4072   4.159   2.065   9.082  0.0000  0.0000  0.0000
 4073OM     OM1 4073   4.085   1.971   9.319  0.0000  0.0000  0.0000
 4074OM     OM1 4074   8.812   3.967   8.714  0.0000  0.0000  0.0000
 4075OM     OM1 4075   8.846   3.821   8.500  0.0000  0.0000  0.0000
 4076OM     OM1 4076   8.960   4.057   8.525  0.0000  0.0000  0.0000
 4077OM     OM1 4077   4.303   0.661   8.650  0.0000  0.0000  0.0000
 4078OM     OM1 4078   4.494   0.704   8.815  0.0000  0.0000  0.0000
 4079OM     OM1 4079   4.364   0.917   8.710  0.0000  0.0000  0.0000
 4080OM     OM1 4080   4.515   0.777   8.563  0.0000  0.0000  0.0000
 4081OM     OM1 4081   1.708   9.384   8.489  0.0000  0.0000  0.0000
 4082OM     OM1 4082   1.342   0.103   8.430  0.0000  0.0000  0.0000
 4083OM     OM1 4083   1.417   0.043   8.669  0.0000  0.0000  0.0000
 4084OM     OM1 4084   8.616   4.398   8.560  0.0000  0.0000  0.0000
 4085OM     OM1 4085   8.619   4.657   8.494  0.0000  0.0000  0.0000
 4086OM     OM1 4086   8.001   4.091   8.544  0.0000  0.0000  0.0000
 4087OM     OM1 4087   7.911   4.097   8.304  0.0000  0.0000  0.0000
 4088OM     OM1 4088   7.775   3.971   8.474  0.0000  0.0000  0.0000
 4089OM     OM1 4089   5.700   8.874   0.943  0.0000  0.0000  0.0000
 4090OM     OM1 4090   5.609   8.998   0.736  0.0000  0.0000  0.0000
 4091OM     OM1 4091   5.856   9.027   0.797  0.0000  0.0000  0.0000
 4092OM     OM1 4092   3.168   4.948   9.242  0.0000  0.0000  0.0000
 4093OM     OM1 4093   3.339   4.795   9.137  0.0000  0.0000  0.0000
 4094OM     OM1 4094   3.392   4.895   9.379  0.0000  0.0000  0.0000
 4095OM     OM1 4095   3.404   5.045   9.164  0.0000  0.0000  0.0000
 4096OM     OM1 4096   4.872   1.814   9.056  0.0000  0.0000  0.0000
 4097OM     OM1 4097   4.986   1.618   8.908  0.0000  0.0000  0.0000
 4098OM     OM1 4098   4.767   1.573   9.057  0.0000  0.0000  0.0000
 4099OM     OM1 4099   4.759   1.720   8.845  0.0000  0.0000  0.0000
 4100OM     OM1 4100   6.534   8.870   0.060  0.0000  0.0000  0.0000
 4101OM     OM1 4101   6.422   8.828   0.289  0.0000  0.0000  0.0000
 4102OM     OM1 4102   1.787   0.884   8.401  0.0000  0.0000  0.0000
 4103OM     OM1 4103   1.954   1.092   8.441  0.0000  0.0000  0.0000
 4104OM     OM1 4104   6.750   0.100   9.199  0.0000  0.0000  0.0000
 4105OM     OM1 4105   6.620   0.136   8.965  0.0000  0.0000  0.0000
 4106OM     OM1 4106   6.881   0.089   8.970  0.0000  0.0000  0.0000
 4107OM     OM1 4107   6.275   3.719   8.482  0.0000  0.0000  0.0000
 4108OM     OM1 4108   6.390   3.946   8.390  0.0000  0.0000  0.0000
 4109OM     OM1 4109   6.487   4.159   8.474  0.0000  0.0000  0.0000
 4110OM     OM1 4110   6.226   4.131   8.460  0.0000  0.0000  0.0000
 4111OM     OM1 4111   9.180   4.524   1.432  0.0000  0.0000  0.0000
 4112OM     OM1 4112   3.133   0.679   9.303  0.0000  0.0000  0.0000
 4113OM     OM1 4113   3.067   0.437   9.374  0.0000  0.0000  0.0000
 4114OM     OM1 4114   0.732   0.125   0.768  0.0000  0.0000  0.0000
 4115OM     OM1 4115   0.545   9.543   0.800  0.0000  0.0000  0.0000
 4116OM     OM1 4116   0.557   0.144   0.967  0.0000  0.0000  0.0000
 4117OM     OM1 4117   0.483   0.180   0.723  0.0000  0.0000  0.0000
 4118OM     OM1 4118   5.965   7.285   8.352  0.0000  0.0000  0.0000
 4119OM     OM1 4119   5.738   7.193   8.421  0.0000  0.0000  0.0000
 4120OM     OM1 4120   2.572   1.856   9.546  0.0000  0.0000  0.0000
 4121OM     OM1 4121   2.574   1.943   9.301  0.0000  0.0000  0.0000
 4122OM     OM1 4122   2.600   2.110   9.490  0.0000  0.0000  0.0000
 4123OM     OM1 4123   2.364   1.989   9.458  0.0000  0.0000  0.0000
 4124OM     OM1 4124   3.904   2.416   0.565  0.0000  0.0000  0.0000
 4125OM     OM1 4125   3.970   2.167   0.538  0.0000  0.0000  0.0000
 4126OM     OM1 4126   4.101   2.355   0.411  0.0000  0.0000  0.0000
 4127OM     OM1 4127   3.860   2.270   0.336  0.0000  0.0000  0.0000
 4128OM     OM1 4128   1.163   7.068   9.324  0.0000  0.0000  0.0000
 4129OM     OM1 4129   1.078   6.850   9.212  0.0000  0.0000  0.0000
 4130OM     OM1 4130   9.248   8.035   9.280  0.0000  0.0000  0.0000
 4131OM     OM1 4131   9.086   8.135   9.472  0.0000  0.0000  0.0000
 4132OM     OM1 4132   7.073   0.938   9.596  0.0000  0.0000  0.0000
 4133OM     OM1 4133   7.248   1.120   0.002  0.0000  0.0000  0.0000
 4134OM     OM1 4134   7.075   1.107   0.195  0.0000  0.0000  0.0000
 4135OM     OM1 4135   8.616   4.344   8.816  0.0000  0.0000  0.0000
 4136OM     OM1 4136   8.585   4.416   9.064  0.0000  0.0000  0.0000
 4137OM     OM1 4137   8.803   4.288   8.992  0.0000  0.0000  0.0000
 4138OM     OM1 4138   8.947   0.478   0.756  0.0000  0.0000  0.0000
 4139OM     OM1 4139   8.734   0.504   0.879  0.0000  0.0000  0.0000
 4140OM     OM1 4140   8.731   0.422   0.612  0.0000  0.0000  0.0000
 4141OM     OM1 4141   9.122   0.271   0.059  0.0000  0.0000  0.0000
 4142OM     OM1 4142   9.079   0.520   0.028  0.0000  0.0000  0.0000
 4143OM     OM1 4143   9.144   0.353   9.426  0.0000  0.0000  0.0000
 4144OM     OM1 4144   8.908   0.367   9.513  0.0000  0.0000  0.0000
 4145OM     OM1 4145   7.384   3.014   8.789  0.0000  0.0000  0.0000
 4146OM     OM1 4146   7.545   2.825   8.699  0.0000  0.0000  0.0000
 4147OM     OM1 4147   7.576   2.936   8.934  0.0000  0.0000  0.0000
 4148OM     OM1 4148   7.638   3.062   8.706  0.0000  0.0000  0.0000
 4149OM     OM1 4149   8.109   9.571   0.990  0.0000  0.0000  0.0000
 4150OM     OM1 4150   8.175   0.016   1.247  0.0000  0.0000  0.0000
 4151OM     OM1 4151   2.083   1.402   0.914  0.0000  0.0000  0.0000
 4152OM     OM1 4152   1.846   1.394   0.812  0.0000  0.0000  0.0000
 4153OM     OM1 4153   1.896   1.543   1.022  0.0000  0.0000  0.0000
 4154OM     OM1 4154   0.949   1.150   0.227  0.0000  0.0000  0.0000
 4155OM     OM1 4155   1.193   1.231   0.247  0.0000  0.0000  0.0000
 4156OM     OM1 4156   0.987   1.408   0.236  0.0000  0.0000  0.0000
 4157OM     OM1 4157   1.028   1.256   0.446  0.0000  0.0000  0.0000
 4158OM     OM1 4158   8.564   3.612   0.611  0.0000  0.0000  0.0000
 4159OM     OM1 4159   8.599   3.733   0.837  0.0000  0.0000  0.0000
 4160OM     OM1 4160   0.238   7.777   0.574  0.0000  0.0000  0.0000
 4161OM     OM1 4161   0.348   7.564   0.643  0.0000  0.0000  0.0000
 4162OM     OM1 4162   0.420   7.683   0.415  0.0000  0.0000  0.0000
 4163OM     OM1 4163   9.309   9.300   0.029  0.0000  0.0000  0.0000
 4164OM     OM1 4164   9.566   9.316   9.570  0.0000  0.0000  0.0000
 4165OM     OM1 4165   9.428   9.532   9.585  0.0000  0.0000  0.0000
 4166OM     OM1 4166   9.466   9.385   0.200  0.0000  0.0000  0.0000
 4167OM     OM1 4167   7.631   1.391   1.243  0.0000  0.0000  0.0000
 4168OM     OM1 4168   7.873   1.444   1.228  0.0000  0.0000  0.0000
 4169OM     OM1 4169   8.514   6.523   9.229  0.0000  0.0000  0.0000
 4170OM     OM1 4170   8.549   6.458   9.469  0.0000  0.0000  0.0000
 4171OM     OM1 4171   8.366   6.320   9.331  0.0000  0.0000  0.0000
 4172OM     OM1 4172   5.189   5.536   1.370  0.0000  0.0000  0.0000
 4173OM     OM1 4173   2.898   7.185   9.287  0.0000  0.0000  0.0000
 4174OM     OM1 4174   2.824   7.256   9.544  0.0000  0.0000  0.0000
 4175OM     OM1 4175   2.688   7.325   9.340  0.0000  0.0000  0.0000
 4176OM     OM1 4176   6.541   7.496   8.789  0.0000  0.0000  0.0000
 4177OM     OM1 4177   6.656   7.661   8.609  0.0000  0.0000  0.0000
 4178OM     OM1 4178   6.428   7.530   8.554  0.0000  0.0000  0.0000
 4179OM     OM1 4179   7.104   7.866   9.150  0.0000  0.0000  0.0000
 4180OM     OM1 4180   6.847   7.866   9.210  0.0000  0.0000  0.0000
 4181OM     OM1 4181   6.920   7.953   8.986  0.0000  0.0000  0.0000
 4182OM     OM1 4182   4.749   4.413   0.976  0.0000  0.0000  0.0000
 4183OM     OM1 4183   4.490   4.340   0.919  0.0000  0.0000  0.0000
 4184OM     OM1 4184   3.559   3.316   1.144  0.0000  0.0000  0.0000
 4185OM     OM1 4185   3.412   3.424   1.350  0.0000  0.0000  0.0000
 4186OM     OM1 4186   2.563   7.573   9.329  0.0000  0.0000  0.0000
 4187OM     OM1 4187   2.529   7.398   9.147  0.0000  0.0000  0.0000
 4188OM     OM1 4188   2.437   7.354   9.386  0.0000  0.0000  0.0000
 4189OM     OM1 4189   2.293   4.867   8.659  0.0000  0.0000  0.0000
 4190OM     OM1 4190   2.332   4.646   8.775  0.0000  0.0000  0.0000
 4191OM     OM1 4191   9.207   2.280   9.482  0.0000  0.0000  0.0000
 4192OM     OM1 4192   9.144   2.321   0.132  0.0000  0.0000  0.0000
 4193OM     OM1 4193   9.085   2.502   9.558  0.0000  0.0000  0.0000
 4194OM     OM1 4194   7.820   6.094   9.046  0.0000  0.0000  0.0000
 4195OM     OM1 4195   7.765   6.227   8.832  0.0000  0.0000  0.0000
 4196OM     OM1 4196   7.928   6.330   9.011  0.0000  0.0000  0.0000
 4197OM     OM1 4197   5.822   9.006   9.245  0.0000  0.0000  0.0000
 4198OM     OM1 4198   5.893   9.020   9.492  0.0000  0.0000  0.0000
 4199OM     OM1 4199   5.892   9.241   9.332  0.0000  0.0000  0.0000
 4200OM     OM1 4200   5.672   9.138   9.419  0.0000  0.0000  0.0000
 4201OM     OM1 4201   7.202   5.533   0.731  0.0000  0.0000  0.0000
 4202OM     OM1 4202   6.998   5.688   0.781  0.0000  0.0000  0.0000
 4203OM     OM1 4203   7.200   5.708   0.925  0.0000  0.0000  0.0000
 4204OM     OM1 4204   7.230   5.783   0.673  0.0000  0.0000  0.0000
 4205OM     OM1 4205   3.093   6.006   8.526  0.0000  0.0000  0.0000
 4206OM     OM1 4206   3.256   6.183   8.420  0.0000  0.0000  0.0000
 4207OM     OM1 4207   2.998   6.182   8.358  0.0000  0.0000  0.0000
 4208OM     OM1 4208   2.330   9.263   8.354  0.0000  0.0000  0.0000
 4209OM     OM1 4209   2.444   9.445   8.213  0.0000  0.0000  0.0000
 4210OM     OM1 4210   8.033   9.541   8.757  0.0000  0.0000  0.0000
 4211OM     OM1 4211   8.256   9.504   8.630  0.0000  0.0000  0.0000
 4212OM     OM1 4212   8.273   9.558   8.876  0.0000  0.0000  0.0000
 4213OM     OM1 4213   9.566   7.855   0.993  0.0000  0.0000  0.0000
 4214OM     OM1 4214   0.131   8.046   1.001  0.0000  0.0000  0.0000
 4215OM     OM1 4215   0.157   7.853   0.822  0.0000  0.0000  0.0000
 4216OM     OM1 4216   0.215   7.807   1.070  0.0000  0.0000  0.0000
 4217OM     OM1 4217   0.558   7.319   9.557  0.0000  0.0000  0.0000
 4218OM     OM1 4218   0.400   7.476   0.081  0.0000  0.0000  0.0000
 4219OM     OM1 4219   0.649   7.486   0.128  0.0000  0.0000  0.0000
 4220OM     OM1 4220   0.532   7.261   0.199  0.0000  0.0000  0.0000
 4221OM     OM1 4221   0.194   6.102   1.233  0.0000  0.0000  0.0000
 4222OM     OM1 4222   0.330   6.039   1.020  0.0000  0.0000  0.0000
 4223OM     OM1 4223   0.083   5.964   1.036  0.0000  0.0000  0.0000
 4224OM     OM1 4224   0.256   5.850   1.190  0.0000  0.0000  0.0000
 4225OM     OM1 4225   8.973   1.452   9.316  0.0000  0.0000  0.0000
 4226OM     OM1 4226   9.220   1.548   9.333  0.0000  0.0000  0.0000
 4227OM     OM1 4227   9.124   1.393   9.519  0.0000  0.0000  0.0000
 4228OM     OM1 4228   9.167   1.297   9.273  0.0000  0.0000  0.0000
 4229OM     OM1 4229   1.393   1.002   8.895  0.0000  0.0000  0.0000
 4230OM     OM1 4230   1.483   0.838   8.719  0.0000  0.0000  0.0000
 4231OM     OM1 4231   1.413   1.089   8.652  0.0000  0.0000  0.0000
 4232OM     OM1 4232   1.974   3.574   9.271  0.0000  0.0000  0.0000
 4233OM     OM1 4233   2.116   3.377   9.405  0.0000  0.0000  0.0000
 4234OM     OM1 4234   2.226   3.514   9.226  0.0000  0.0000  0.0000
 4235OM     OM1 4235   2.149   3.633   9.450  0.0000  0.0000  0.0000
 4236OM     OM1 4236   1.328   9.133   8.355  0.0000  0.0000  0.0000
 4237OM     OM1 4237   3.428   5.810   8.542  0.0000  0.0000  0.0000
 4238OM     OM1 4238   3.509   5.783   8.307  0.0000  0.0000  0.0000
 4239OM     OM1 4239   3.466   6.027   8.406  0.0000  0.0000  0.0000
 4240OM     OM1 4240   3.677   5.892   8.481  0.0000  0.0000  0.0000
 4241OM     OM1 4241   6.629   0.740   1.013  0.0000  0.0000  0.0000
 4242OM     OM1 4242   6.764   0.539   1.097  0.0000  0.0000  0.0000
 4243OM     OM1 4243   6.540   0.493   0.970  0.0000  0.0000  0.0000
 4244OM     OM1 4244   7.793   8.703   8.988  0.0000  0.0000  0.0000
 4245OM     OM1 4245   7.558   8.592   9.035  0.0000  0.0000  0.0000
 4246OM     OM1 4246   7.581   8.846   8.996  0.0000  0.0000  0.0000
 4247OM     OM1 4247   7.599   8.687   8.798  0.0000  0.0000  0.0000
 4248OM     OM1 4248   7.527   6.667   8.691  0.0000  0.0000  0.0000
 4249OM     OM1 4249   7.698   6.578   8.512  0.0000  0.0000  0.0000
 4250OM     OM1 4250   7.452   6.470   8.552  0.0000  0.0000  0.0000
 4251OM     OM1 4251   7.650   6.424   8.704  0.0000  0.0000  0.0000
 4252OM     OM1 4252   3.337   4.482   9.458  0.0000  0.0000  0.0000
 4253OM     OM1 4253   3.448   4.706   9.551  0.0000  0.0000  0.0000
 4254OM     OM1 4254   3.198   4.679   9.555  0.0000  0.0000  0.0000
 4255OM     OM1 4255   5.176   1.156   9.399  0.0000  0.0000  0.0000
 4256OM     OM1 4256   5.217   1.413   9.382  0.0000  0.0000  0.0000
 4257OM     OM1 4257   5.231   1.284   0.013  0.0000  0.0000  0.0000
 4258OM     OM1 4258   5.411   1.256   9.428  0.0000  0.0000  0.0000
 4259OM     OM1 4259   8.352   6.324   0.588  0.0000  0.0000  0.0000
 4260OM     OM1 4260   8.102   6.237   0.639  0.0000  0.0000  0.0000
 4261OM     OM1 4261   8.153   6.485   0.590  0.0000  0.0000  0.0000
 4262OM     OM1 4262   2.016   2.826   0.216  0.0000  0.0000  0.0000
 4263OM     OM1 4263   2.118   2.916   0.427  0.0000  0.0000  0.0000
 4264OM     OM1 4264   2.082   3.071   0.194  0.0000  0.0000  0.0000
 4265OM     OM1 4265   2.268   2.901   0.205  0.0000  0.0000  0.0000
 4266OM     OM1 4266   3.596   3.664   0.477  0.0000  0.0000  0.0000
 4267OM     OM1 4267   3.677   3.490   0.660  0.0000  0.0000  0.0000
 4268OM     OM1 4268   3.772   3.489   0.411  0.0000  0.0000  0.0000
 4269OM     OM1 4269   3.530   3.404   0.465  0.0000  0.0000  0.0000
 4270OM     OM1 4270   5.021   8.096   1.255  0.0000  0.0000  0.0000
 4271OM     OM1 4271   5.189   8.138   1.056  0.0000  0.0000  0.0000
 4272OM     OM1 4272   6.446   6.120   0.611  0.0000  0.0000  0.0000
 4273OM     OM1 4273   6.597   6.328   0.590  0.0000  0.0000  0.0000
 4274OM     OM1 4274   6.396   6.304   0.429  0.0000  0.0000  0.0000
 4275OM     OM1 4275   6.597   6.144   0.398  0.0000  0.0000  0.0000
 4276OM     OM1 4276   8.439   2.131   0.678  0.0000  0.0000  0.0000
 4277OM     OM1 4277   8.648   2.246   0.767  0.0000  0.0000  0.0000
 4278OM     OM1 4278   0.153   3.413   8.408  0.0000  0.0000  0.0000
 4279OM     OM1 4279   0.045   3.211   8.546  0.0000  0.0000  0.0000
 4280OM     OM1 4280   9.585   3.459   8.593  0.0000  0.0000  0.0000
 4281OM     OM1 4281   9.520   3.339   8.361  0.0000  0.0000  0.0000
 4282OM     OM1 4282   4.172   5.476   0.126  0.0000  0.0000  0.0000
 4283OM     OM1 4283   4.411   5.426   0.019  0.0000  0.0000  0.0000
 4284OM     OM1 4284   0.773   6.495   8.926  0.0000  0.0000  0.0000
 4285OM     OM1 4285   0.574   6.512   9.108  0.0000  0.0000  0.0000
 4286OM     OM1 4286   0.559   6.435   8.815  0.0000  0.0000  0.0000
 4287OM     OM1 4287   6.431   5.971   0.824  0.0000  0.0000  0.0000
 4288OM     OM1 4288   6.220   6.104   0.723  0.0000  0.0000  0.0000
 4289OM     OM1 4289   6.324   5.899   0.593  0.0000  0.0000  0.0000
 4290OM     OM1 4290   3.653   0.335   8.657  0.0000  0.0000  0.0000
 4291OM     OM1 4291   3.891   0.283   8.767  0.0000  0.0000  0.0000
 4292OM     OM1 4292   3.853   0.338   8.504  0.0000  0.0000  0.0000
 4293OM     OM1 4293   3.781   0.110   8.610  0.0000  0.0000  0.0000
 4294OM     OM1 4294   8.061   1.542   0.096  0.0000  0.0000  0.0000
 4295OM     OM1 4295   8.350   1.683   9.559  0.0000  0.0000  0.0000
 4296OM     OM1 4296   8.037   1.774   0.204  0.0000  0.0000  0.0000
 4297OM     OM1 4297   8.898   3.567   8.469  0.0000  0.0000  0.0000
 4298OM     OM1 4298   8.669   3.664   8.384  0.0000  0.0000  0.0000
 4299OM     OM1 4299   4.142   8.323   9.478  0.0000  0.0000  0.0000
 4300OM     OM1 4300   3.978   8.320   9.270  0.0000  0.0000  0.0000
 4301OM     OM1 4301   4.171   8.146   9.299  0.0000  0.0000  0.0000
 4302OM     OM1 4302   6.657   1.479   8.624  0.0000  0.0000  0.0000
 4303OM     OM1 4303   6.425   1.572   8.650  0.0000  0.0000  0.0000
 4304OM     OM1 4304   6.724   1.524   8.379  0.0000  0.0000  0.0000
 4305OM     OM1 4305   1.494   3.763   8.939  0.0000  0.0000  0.0000
 4306OM     OM1 4306   1.556   3.533   9.049  0.0000  0.0000  0.0000
 4307OM     OM1 4307   1.618   3.592   8.791  0.0000  0.0000  0.0000
 4308OM     OM1 4308   1.379   3.538   8.856  0.0000  0.0000  0.0000
 4309OM     OM1 4309   4.605   0.409   0.094  0.0000  0.0000  0.0000
 4310OM     OM1 4310   4.605   0.506   9.466  0.0000  0.0000  0.0000
 4311OM     OM1 4311   4.841   0.497   9.587  0.0000  0.0000  0.0000
 4312OM     OM1 4312   9.049   4.195   9.007  0.0000  0.0000  0.0000
 4313OM     OM1 4313   8.851   4.035   8.965  0.0000  0.0000  0.0000
 4314OM     OM1 4314   3.995   3.453   0.256  0.0000  0.0000  0.0000
 4315OM     OM1 4315   4.237   3.499   0.358  0.0000  0.0000  0.0000
 4316OM     OM1 4316   4.041   3.681   0.342  0.0000  0.0000  0.0000
 4317OM     OM1 4317   4.895   7.329   1.039  0.0000  0.0000  0.0000
 4318OM     OM1 4318   5.103   7.311   1.200  0.0000  0.0000  0.0000
 4319OM     OM1 4319   5.090   7.160   0.983  0.0000  0.0000  0.0000
 4320OM     OM1 4320   5.085   6.966   0.792  0.0000  0.0000  0.0000
 4321OM     OM1 4321   6.536   5.197   0.579  0.0000  0.0000  0.0000
 4322OM     OM1 4322   6.501   5.203   0.842  0.0000  0.0000  0.0000
 4323OM     OM1 4323   6.293   5.161   0.679  0.0000  0.0000  0.0000
 4324OM     OM1 4324   6.486   4.982   0.719  0.0000  0.0000  0.0000
 4325OM     OM1 4325   4.888   4.525   8.348  0.0000  0.0000  0.0000
 4326OM     OM1 4326   4.766   4.297   8.355  0.0000  0.0000  0.0000
 4327OM     OM1 4327   1.949   4.909   1.083  0.0000  0.0000  0.0000
 4328OM     OM1 4328   2.127   4.949   0.897  0.0000  0.0000  0.0000
 4329OM     OM1 4329   2.105   5.111   1.105  0.0000  0.0000  0.0000
 4330OM     OM1 4330   2.209   4.866   1.129  0.0000  0.0000  0.0000
 4331OM     OM1 4331   5.537   7.257   8.914  0.0000  0.0000  0.0000
 4332OM     OM1 4332   5.743   7.402   9.062  0.0000  0.0000  0.0000
 4333OM     OM1 4333   5.769   7.163   8.989  0.0000  0.0000  0.0000
 4334OM     OM1 4334   5.752   7.363   8.819  0.0000  0.0000  0.0000
 4335OM     OM1 4335   1.209   5.850   0.321  0.0000  0.0000  0.0000
 4336OM     OM1 4336   1.090   5.728   0.525  0.0000  0.0000  0.0000
 4337OM     OM1 4337   1.128   5.595   0.312  0.0000  0.0000  0.0000
 4338OM     OM1 4338   0.837   8.458   8.304  0.0000  0.0000  0.0000
 4339OM     OM1 4339   1.039   8.470   8.476  0.0000  0.0000  0.0000
 4340OM     OM1 4340   1.032   8.280   8.281  0.0000  0.0000  0.0000
 4341OM     OM1 4341   4.687   0.471   0.570  0.0000  0.0000  0.0000
 4342OM     OM1 4342   4.762   0.241   0.663  0.0000  0.0000  0.0000
 4343OM     OM1 4343   4.505   0.320   0.660  0.0000  0.0000  0.0000
 4344OM     OM1 4344   4.676   0.426   0.829  0.0000  0.0000  0.0000
 4345OM     OM1 4345   3.644   2.893   0.083  0.0000  0.0000  0.0000
 4346OM     OM1 4346   3.426   2.793   9.595  0.0000  0.0000  0.0000
 4347OM     OM1 4347   3.566   2.962   9.452  0.0000  0.0000  0.0000
 4348OM     OM1 4348   3.419   3.043   0.044  0.0000  0.0000  0.0000
 4349OM     OM1 4349   7.643   7.670   8.474  0.0000  0.0000  0.0000
 4350OM     OM1 4350   7.541   7.445   8.533  0.0000  0.0000  0.0000
 4351OM     OM1 4351   7.505   7.637   8.693  0.0000  0.0000  0.0000
 4352OM     OM1 4352   7.749   7.524   8.670  0.0000  0.0000  0.0000
 4353OM     OM1 4353   2.747   5.623   8.654  0.0000  0.0000  0.0000
 4354OM     OM1 4354   2.557   5.487   8.811  0.0000  0.0000  0.0000
 4355OM     OM1 4355   2.699   5.369   8.633  0.0000  0.0000  0.0000
 4356OM     OM1 4356   2.808   5.464   8.855  0.0000  0.0000  0.0000
 4357OM     OM1 4357   2.222   8.444   9.333  0.0000  0.0000  0.0000
 4358OM     OM1 4358   2.189   8.416   9.067  0.0000  0.0000  0.0000
 4359OM     OM1 4359   1.987   8.398   9.225  0.0000  0.0000  0.0000
 4360OM     OM1 4360   2.171   8.211   9.222  0.0000  0.0000  0.0000
 4361OM     OM1 4361   8.657   0.697   1.039  0.0000  0.0000  0.0000
 4362OM     OM1 4362   8.501   0.893   0.963  0.0000  0.0000  0.0000
 4363OM     OM1 4363   8.432   0.756   1.171  0.0000  0.0000  0.0000
 4364OM     OM1 4364   8.434   0.632   0.942  0.0000  0.0000  0.0000
 4365OM     OM1 4365   5.494   0.882   0.985  0.0000  0.0000  0.0000
 4366OM     OM1 4366   5.281   0.709   0.989  0.0000  0.0000  0.0000
 4367OM     OM1 4367   5.447   0.707   1.184  0.0000  0.0000  0.0000
 4368OM     OM1 4368   5.518   0.611   0.964  0.0000  0.0000  0.0000
 4369OM     OM1 4369   9.069   4.928   9.186  0.0000  0.0000  0.0000
 4370OM     OM1 4370   9.203   5.129   9.269  0.0000  0.0000  0.0000
 4371OM     OM1 4371   9.195   5.074   9.017  0.0000  0.0000  0.0000
 4372OM     OM1 4372   9.055   0.198   9.220  0.0000  0.0000  0.0000
 4373OM     OM1 4373   9.163   0.455   9.203  0.0000  0.0000  0.0000
 4374OM     OM1 4374   3.551   3.354   0.848  0.0000  0.0000  0.0000
 4375OM     OM1 4375   6.179   9.123   9.019  0.0000  0.0000  0.0000
 4376OM     OM1 4376   5.927   9.097   9.024  0.0000  0.0000  0.0000
 4377OM     OM1 4377   0.363   4.220   1.070  0.0000  0.0000  0.0000
 4378OM     OM1 4378   0.319   4.396   1.250  0.0000  0.0000  0.0000
 4379OM     OM1 4379   0.537   4.417   1.098  0.0000  0.0000  0.0000
 4380OM     OM1 4380   3.769   7.239   9.267  0.0000  0.0000  0.0000
 4381OM     OM1 4381   3.679   7.467   9.345  0.0000  0.0000  0.0000
 4382OM     OM1 4382   5.685   8.660   1.093  0.0000  0.0000  0.0000
 4383OM     OM1 4383   5.468   8.778   1.022  0.0000  0.0000  0.0000
 4384OM     OM1 4384   5.616   8.893   1.193  0.0000  0.0000  0.0000
 4385OM     OM1 4385   1.790   1.836   9.144  0.0000  0.0000  0.0000
 4386OM     OM1 4386   1.796   1.577   9.164  0.0000  0.0000  0.0000
 4387OM     OM1 4387   1.813   1.728   9.377  0.0000  0.0000  0.0000
 4388OM     OM1 4388   2.017   1.721   9.213  0.0000  0.0000  0.0000
 4389OM     OM1 4389   0.250   8.793   0.214  0.0000  0.0000  0.0000
 4390OM     OM1 4390   0.074   8.679   0.357  0.0000  0.0000  0.0000
 4391OM     OM1 4391   3.590   2.606   8.498  0.0000  0.0000  0.0000
 4392OM     OM1 4392   3.792   2.454   8.436  0.0000  0.0000  0.0000
 4393OM     OM1 4393   3.497   2.810   8.655  0.0000  0.0000  0.0000
 4394OM     OM1 4394   0.252   8.607   9.459  0.0000  0.0000  0.0000
 4395OM     OM1 4395   0.500   8.513   9.511  0.0000  0.0000  0.0000
 4396OM     OM1 4396   0.311   8.355   9.440  0.0000  0.0000  0.0000
 4397OM     OM1 4397   0.407   8.535   9.270  0.0000  0.0000  0.0000
 4398OM     OM1 4398   2.790   1.430   1.172  0.0000  0.0000  0.0000
 4399OM     OM1 4399   2.555   1.315   1.090  0.0000  0.0000  0.0000
 4400OM     OM1 4400   2.775   1.205   1.035  0.0000  0.0000  0.0000
 4401OM     OM1 4401   1.474   5.927   8.932  0.0000  0.0000  0.0000
 4402OM     OM1 4402   1.465   6.176   9.027  0.0000  0.0000  0.0000
 4403OM     OM1 4403   1.563   6.130   8.794  0.0000  0.0000  0.0000
 4404OM     OM1 4404   7.382   8.676   9.209  0.0000  0.0000  0.0000
 4405OM     OM1 4405   7.465   8.422   9.209  0.0000  0.0000  0.0000
 4406OM     OM1 4406   7.312   8.529   9.016  0.0000  0.0000  0.0000
 4407OM     OM1 4407   9.453   7.876   0.341  0.0000  0.0000  0.0000
 4408OM     OM1 4408   9.480   7.759   0.567  0.0000  0.0000  0.0000
 4409OM     OM1 4409   0.036   7.968   0.497  0.0000  0.0000  0.0000
 4410OM     OM1 4410   7.050   6.014   8.971  0.0000  0.0000  0.0000
 4411OM     OM1 4411   7.142   6.172   9.146  0.0000  0.0000  0.0000
 4412OM     OM1 4412   7.050   5.929   9.220  0.0000  0.0000  0.0000
 4413OM     OM1 4413   6.292   3.645   8.927  0.0000  0.0000  0.0000
 4414OM     OM1 4414   6.515   3.502   8.947  0.0000  0.0000  0.0000
 4415OM     OM1 4415   6.278   3.414   9.047  0.0000  0.0000  0.0000
 4416OM     OM1 4416   6.329   3.424   8.793  0.0000  0.0000  0.0000
 4417OM     OM1 4417   5.818   7.544   1.036  0.0000  0.0000  0.0000
 4418OM     OM1 4418   6.034   7.512   1.157  0.0000  0.0000  0.0000
 4419OM     OM1 4419   5.955   7.814   1.267  0.0000  0.0000  0.0000
 4420OM     OM1 4420   2.963   6.393   0.607  0.0000  0.0000  0.0000
 4421OM     OM1 4421   2.998   6.573   0.426  0.0000  0.0000  0.0000
 4422OM     OM1 4422   3.073   6.322   0.370  0.0000  0.0000  0.0000
 4423OM     OM1 4423   4.464   0.208   0.212  0.0000  0.0000  0.0000
 4424OM     OM1 4424   4.577   0.398   0.343  0.0000  0.0000  0.0000
 4425OM     OM1 4425   0.948   7.416   1.088  0.0000  0.0000  0.0000
 4426OM     OM1 4426   0.811   7.185   1.107  0.0000  0.0000  0.0000
 4427OM     OM1 4427   0.725   7.400   1.213  0.0000  0.0000  0.0000
 4428OM     OM1 4428   3.066   9.382   9.478  0.0000  0.0000  0.0000
 4429OM     OM1 4429   2.984   9.369   9.228  0.0000  0.0000  0.0000
 4430OM     OM1 4430   2.891   9.195   9.388  0.0000  0.0000  0.0000
 4431OM     OM1 4431   3.138   9.174   9.326  0.0000  0.0000  0.0000
 4432OM     OM1 4432   0.193   6.157   8.350  0.0000  0.0000  0.0000
 4433OM     OM1 4433   0.107   6.398   8.374  0.0000  0.0000  0.0000
 4434OM     OM1 4434   9.554   6.182   8.427  0.0000  0.0000  0.0000
 4435OM     OM1 4435   7.671   2.110   8.391  0.0000  0.0000  0.0000
 4436OM     OM1 4436   4.117   2.039   8.689  0.0000  0.0000  0.0000
 4437OM     OM1 4437   3.853   2.035   8.645  0.0000  0.0000  0.0000
 4438OM     OM1 4438   3.958   1.905   8.843  0.0000  0.0000  0.0000
 4439OM     OM1 4439   4.006   1.823   8.598  0.0000  0.0000  0.0000
 4440OM     OM1 4440   5.808   8.517   0.155  0.0000  0.0000  0.0000
 4441OM     OM1 4441   5.634   8.604   9.577  0.0000  0.0000  0.0000
 4442OM     OM1 4442   3.796   8.515   8.832  0.0000  0.0000  0.0000
 4443OM     OM1 4443   4.012   8.363   8.886  0.0000  0.0000  0.0000
 4444OM     OM1 4444   3.969   8.612   8.988  0.0000  0.0000  0.0000
 4445OM     OM1 4445   3.834   8.413   9.067  0.0000  0.0000  0.0000
 4446OM     OM1 4446   4.106   6.100   1.088  0.0000  0.0000  0.0000
 4447OM     OM1 4447   4.081   6.271   0.866  0.0000  0.0000  0.0000
 4448OM     OM1 4448   4.133   6.027   0.847  0.0000  0.0000  0.0000
 4449OM     OM1 4449   3.895   6.099   0.934  0.0000  0.0000  0.0000
 4450OM     OM1 4450   4.154   7.310   1.013  0.0000  0.0000  0.0000
 4451OM     OM1 4451   4.092   7.545   0.937  0.0000  0.0000  0.0000
 4452OM     OM1 4452   4.246   7.507   1.153  0.0000  0.0000  0.0000
 4453OM     OM1 4453   5.412   2.706   1.060  0.0000  0.0000  0.0000
 4454OM     OM1 4454   5.346   2.653   1.307  0.0000  0.0000  0.0000
 4455OM     OM1 4455   5.389   2.900   1.228  0.0000  0.0000  0.0000
 4456OM     OM1 4456   1.935   5.803   0.837  0.0000  0.0000  0.0000
 4457OM     OM1 4457   1.873   6.030   0.953  0.0000  0.0000  0.0000
 4458OM     OM1 4458   1.687   5.862   0.844  0.0000  0.0000  0.0000
 4459OM     OM1 4459   0.314   6.573   9.162  0.0000  0.0000  0.0000
 4460OM     OM1 4460   0.465   6.460   9.338  0.0000  0.0000  0.0000
 4461OM     OM1 4461   0.369   8.793   9.239  0.0000  0.0000  0.0000
 4462OM     OM1 4462   0.423   9.045   9.270  0.0000  0.0000  0.0000
 4463OM     OM1 4463   0.367   8.942   9.036  0.0000  0.0000  0.0000
 4464OM     OM1 4464   6.942   7.856   0.624  0.0000  0.0000  0.0000
 4465OM     OM1 4465   6.716   7.912   0.508  0.0000  0.0000  0.0000
 4466OM     OM1 4466   2.567   9.212   0.264  0.0000  0.0000  0.0000
 4467OM     OM1 4467   2.704   9.215   0.476  0.0000  0.0000  0.0000
 4468OM     OM1 4468   2.676   9.431   0.336  0.0000  0.0000  0.0000
 4469OM     OM1 4469   2.902   8.398   0.856  0.0000  0.0000  0.0000
 4470OM     OM1 4470   3.121   8.266   0.912  0.0000  0.0000  0.0000
 4471OM     OM1 4471   3.140   8.518   0.868  0.0000  0.0000  0.0000
 4472OM     OM1 4472   3.078   8.364   0.668  0.0000  0.0000  0.0000
 4473OM     OM1 4473   5.508   9.441   9.007  0.0000  0.0000  0.0000
 4474OM     OM1 4474   5.625   0.064   8.945  0.0000  0.0000  0.0000
 4475OM     OM1 4475   5.757   9.487   9.067  0.0000  0.0000  0.0000
 4476OM     OM1 4476   7.676   5.137   1.249  0.0000  0.0000  0.0000
 4477OM     OM1 4477   7.781   5.369   1.251  0.0000  0.0000  0.0000
 4478OM     OM1 4478   7.537   5.331   1.348  0.0000  0.0000  0.0000
 4479OM     OM1 4479   5.696   8.589   8.263  0.0000  0.0000  0.0000
 4480OM     OM1 4480   5.336   8.598   8.472  0.0000  0.0000  0.0000
 4481OM     OM1 4481   5.450   8.660   8.247  0.0000  0.0000  0.0000
 4482OM     OM1 4482   3.309   8.036   9.181  0.0000  0.0000  0.0000
 4483OM     OM1 4483   3.281   7.784   9.119  0.0000  0.0000  0.0000
 4484OM     OM1 4484   3.349   7.850   9.368  0.0000  0.0000  0.0000
 4485OM     OM1 4485   3.516   7.883   9.175  0.0000  0.0000  0.0000
 4486OM     OM1 4486   7.426   8.986   8.835  0.0000  0.0000  0.0000
 4487OM     OM1 4487   7.314   9.152   8.660  0.0000  0.0000  0.0000
 4488OM     OM1 4488   7.266   9.156   8.920  0.0000  0.0000  0.0000
 4489OM     OM1 4489   7.168   8.967   8.778  0.0000  0.0000  0.0000
 4490OM     OM1 4490   9.274   4.577   8.792  0.0000  0.0000  0.0000
 4491OM     OM1 4491   9.309   4.402   8.614  0.0000  0.0000  0.0000
 4492OM     OM1 4492   9.167   4.352   8.837  0.0000  0.0000  0.0000
 4493OM     OM1 4493   9.080   4.518   8.634  0.0000  0.0000  0.0000
 4494OM     OM1 4494   4.658   0.340   8.318  0.0000  0.0000  0.0000
 4495OM     OM1 4495   4.651   0.576   8.495  0.0000  0.0000  0.0000
 4496OM     OM1 4496   4.636   0.340   8.577  0.0000  0.0000  0.0000
 4497OM     OM1 4497   4.424   0.342   8.421  0.0000  0.0000  0.0000
 4498OM     OM1 4498   5.815   2.363   0.226  0.0000  0.0000  0.0000
 4499OM     OM1 4499   6.041   2.410   0.356  0.0000  0.0000  0.0000
 4500OM     OM1 4500   6.047   2.285   0.131  0.0000  0.0000  0.0000
 4501OM     OM1 4501   8.095   8.574   1.192  0.0000  0.0000  0.0000
 4502OM     OM1 4502   7.897   8.585   1.001  0.0000  0.0000  0.0000
 4503OM     OM1 4503   8.079   8.407   0.990  0.0000  0.0000  0.0000
 4504OM     OM1 4504   9.528   3.754   0.028  0.0000  0.0000  0.0000
 4505OM     OM1 4505   0.131   3.641   0.154  0.0000  0.0000  0.0000
 4506OM     OM1 4506   9.510   3.653   0.278  0.0000  0.0000  0.0000
 4507OM     OM1 4507   1.917   0.670   9.467  0.0000  0.0000  0.0000
 4508OM     OM1 4508   1.826   0.468   0.006  0.0000  0.0000  0.0000
 4509OM     OM1 4509   5.543   3.935   1.278  0.0000  0.0000  0.0000
 4510OM     OM1 4510   5.334   4.081   1.272  0.0000  0.0000  0.0000
 4511OM     OM1 4511   2.199   5.192   8.348  0.0000  0.0000  0.0000
 4512OM     OM1 4512   2.209   5.430   8.469  0.0000  0.0000  0.0000
 4513OM     OM1 4513   2.008   5.355   8.325  0.0000  0.0000  0.0000
 4514OM     OM1 4514   5.522   8.398   1.253  0.0000  0.0000  0.0000
 4515OM     OM1 4515   0.717   6.658   1.313  0.0000  0.0000  0.0000
 4516OM     OM1 4516   0.959   6.578   1.298  0.0000  0.0000  0.0000
 4517OM     OM1 4517   0.922   6.830   1.316  0.0000  0.0000  0.0000
 4518OM     OM1 4518   0.309   5.894   8.763  0.0000  0.0000  0.0000
 4519OM     OM1 4519   0.316   5.984   8.514  0.0000  0.0000  0.0000
 4520OM     OM1 4520   0.523   5.855   8.631  0.0000  0.0000  0.0000
 4521OM     OM1 4521   0.310   5.731   8.554  0.0000  0.0000  0.0000
 4522OM     OM1 4522   1.190   4.419   9.118  0.0000  0.0000  0.0000
 4523OM     OM1 4523   1.417   4.322   9.215  0.0000  0.0000  0.0000
 4524OM     OM1 4524   9.123   5.867   0.629  0.0000  0.0000  0.0000
 4525OM     OM1 4525   9.112   5.867   0.363  0.0000  0.0000  0.0000
 4526OM     OM1 4526   9.030   9.312   0.443  0.0000  0.0000  0.0000
 4527OM     OM1 4527   8.819   9.160   0.447  0.0000  0.0000  0.0000
 4528OM     OM1 4528   8.817   9.421   0.535  0.0000  0.0000  0.0000
 4529OM     OM1 4529   8.845   9.362   0.287  0.0000  0.0000  0.0000
 4530OM     OM1 4530   9.584   5.189   1.296  0.0000  0.0000  0.0000
 4531OM     OM1 4531   9.344   5.024   8.802  0.0000  0.0000  0.0000
 4532OM     OM1 4532   9.381   4.891   9.017  0.0000  0.0000  0.0000
 4533OM     OM1 4533   9.152   4.857   8.888  0.0000  0.0000  0.0000
 4534OM     OM1 4534   0.705   5.272   1.367  0.0000  0.0000  0.0000
 4535OM     OM1 4535   0.554   5.463   1.263  0.0000  0.0000  0.0000
 4536OM     OM1 4536   4.807   3.525   0.804  0.0000  0.0000  0.0000
 4537OM     OM1 4537   4.769   3.362   1.002  0.0000  0.0000  0.0000
 4538OM     OM1 4538   4.619   3.582   0.975  0.0000  0.0000  0.0000
 4539OM     OM1 4539   6.479   2.540   8.264  0.0000  0.0000  0.0000
 4540OM     OM1 4540   8.584   3.061   0.757  0.0000  0.0000  0.0000
 4541OM     OM1 4541   8.821   3.151   0.765  0.0000  0.0000  0.0000
 4542OM     OM1 4542   8.658   3.222   0.572  0.0000  0.0000  0.0000
 4543OM     OM1 4543   1.548   9.283   0.531  0.0000  0.0000  0.0000
 4544OM     OM1 4544   1.435   9.057   0.589  0.0000  0.0000  0.0000
 4545OM     OM1 4545   1.289   9.270   0.607  0.0000  0.0000  0.0000
 4546OM     OM1 4546   4.154   6.132   9.531  0.0000  0.0000  0.0000
 4547OM     OM1 4547   4.286   6.243   0.115  0.0000  0.0000  0.0000
 4548OM     OM1 4548   4.178   6.388   9.527  0.0000  0.0000  0.0000
 4549OM     OM1 4549   4.020   6.268   0.092  0.0000  0.0000  0.0000
 4550OM     OM1 4550   5.739   6.132   8.586  0.0000  0.0000  0.0000
 4551OM     OM1 4551   5.657   6.069   8.836  0.0000  0.0000  0.0000
 4552OM     OM1 4552   5.526   6.225   8.678  0.0000  0.0000  0.0000
 4553OM     OM1 4553   8.386   5.525   8.222  0.0000  0.0000  0.0000
 4554OM     OM1 4554   8.561   5.775   8.486  0.0000  0.0000  0.0000
 4555OM     OM1 4555   8.552   5.587   8.668  0.0000  0.0000  0.0000
 4556OM     OM1 4556   8.576   5.539   8.406  0.0000  0.0000  0.0000
 4557OM     OM1 4557   0.643   1.212   9.443  0.0000  0.0000  0.0000
 4558OM     OM1 4558   0.535   1.180   9.220  0.0000  0.0000  0.0000
 4559OM     OM1 4559   0.597   0.965   9.352  0.0000  0.0000  0.0000
 4560OM     OM1 4560   6.906   1.506   8.589  0.0000  0.0000  0.0000
 4561OM     OM1 4561   6.611   1.729   8.564  0.0000  0.0000  0.0000
 4562OM     OM1 4562   6.609   1.655   8.816  0.0000  0.0000  0.0000
 4563OM     OM1 4563   0.404   9.161   9.493  0.0000  0.0000  0.0000
 4564OM     OM1 4564   0.652   9.093   9.411  0.0000  0.0000  0.0000
 4565OM     OM1 4565   7.119   4.243   8.482  0.0000  0.0000  0.0000
 4566OM     OM1 4566   7.112   4.338   8.721  0.0000  0.0000  0.0000
 4567OM     OM1 4567   6.650   7.947   9.362  0.0000  0.0000  0.0000
 4568OM     OM1 4568   7.680   9.218   9.483  0.0000  0.0000  0.0000
 4569OM     OM1 4569   7.544   9.190   0.099  0.0000  0.0000  0.0000
 4570OM     OM1 4570   7.632   8.982   9.596  0.0000  0.0000  0.0000
 4571OM     OM1 4571   7.448   9.103   9.459  0.0000  0.0000  0.0000
 4572OM     OM1 4572   7.722   2.797   0.067  0.0000  0.0000  0.0000
 4573OM     OM1 4573   7.941   2.905   9.568  0.0000  0.0000  0.0000
 4574OM     OM1 4574   7.714   3.041   9.596  0.0000  0.0000  0.0000
 4575OM     OM1 4575   5.864   8.063   1.111  0.0000  0.0000  0.0000
 4576OM     OM1 4576   5.680   8.195   1.222  0.0000  0.0000  0.0000
 4577OM     OM1 4577   5.790   7.992   1.347  0.0000  0.0000  0.0000
 4578OM     OM1 4578   5.624   7.950   1.154  0.0000  0.0000  0.0000
 4579OM     OM1 4579   0.849   3.110   8.678  0.0000  0.0000  0.0000
 4580OM     OM1 4580   0.680   3.199   8.493  0.0000  0.0000  0.0000
 4581OM     OM1 4581   0.599   3.032   8.670  0.0000  0.0000  0.0000
 4582OM     OM1 4582   0.654   3.281   8.735  0.0000  0.0000  0.0000
 4583OM     OM1 4583   3.335   2.427   0.871  0.0000  0.0000  0.0000
 4584OM     OM1 4584   3.219   2.300   1.058  0.0000  0.0000  0.0000
 4585OM     OM1 4585   8.221   0.637   0.806  0.0000  0.0000  0.0000
 4586OM     OM1 4586   0.086   3.145   1.236  0.0000  0.0000  0.0000
 4587OM     OM1 4587   9.552   3.362   1.180  0.0000  0.0000  0.0000
 4588OM     OM1 4588   9.489   3.129   1.075  0.0000  0.0000  0.0000
 4589OM     OM1 4589   4.324   0.724   1.189  0.0000  0.0000  0.0000
 4590OM     OM1 4590   4.213   0.735   0.956  0.0000  0.0000  0.0000
 4591OM     OM1 4591   4.253   0.510   1.077  0.0000  0.0000  0.0000
 4592OM     OM1 4592   4.068   0.680   1.171  0.0000  0.0000  0.0000
 4593OM     OM1 4593   1.507   2.943   0.736  0.0000  0.0000  0.0000
 4594OM     OM1 4594   1.374   3.412   0.591  0.0000  0.0000  0.0000
 4595OM     OM1 4595   1.477   3.200   0.701  0.0000  0.0000  0.0000
 4596OM     OM1 4596   3.824   2.655   9.562  0.0000  0.0000  0.0000
 4597OM     OM1 4597   3.959   2.707   0.189  0.0000  0.0000  0.0000
 4598OM     OM1 4598   3.759   2.553   0.191  0.0000  0.0000  0.0000
 4599OM     OM1 4599   5.804   8.231   0.813  0.0000  0.0000  0.0000
 4600OM     OM1 4600   5.913   8.047   0.652  0.0000  0.0000  0.0000
 4601OM     OM1 4601   6.001   8.092   0.897  0.0000  0.0000  0.0000
 4602OM     OM1 4602   5.780   7.962   0.852  0.0000  0.0000  0.0000
 4603OM     OM1 4603   0.524   0.424   8.274  0.0000  0.0000  0.0000
 4604OM     OM1 4604   0.480   0.166   8.257  0.0000  0.0000  0.0000
 4605OM     OM1 4605   3.987   8.803   8.767  0.0000  0.0000  0.0000
 4606OM     OM1 4606   4.062   9.041   8.841  0.0000  0.0000  0.0000
 4607OM     OM1 4607   0.953   4.598   8.369  0.0000  0.0000  0.0000
 4608OM     OM1 4608   1.051   4.388   8.469  0.0000  0.0000  0.0000
 4609OM     OM1 4609   4.375   2.408   0.879  0.0000  0.0000  0.0000
 4610OM     OM1 4610   4.639   2.470   0.876  0.0000  0.0000  0.0000
 4611OM     OM1 4611   4.483   2.521   0.673  0.0000  0.0000  0.0000
 4612OM     OM1 4612   4.546   2.271   0.737  0.0000  0.0000  0.0000
 4613OM     OM1 4613   1.967   6.616   0.054  0.0000  0.0000  0.0000
 4614OM     OM1 4614   2.179   6.616   9.483  0.0000  0.0000  0.0000
 4615OM     OM1 4615   2.160   6.447   0.066  0.0000  0.0000  0.0000
 4616OM     OM1 4616   2.192   6.705   0.126  0.0000  0.0000  0.0000
 4617OM     OM1 4617   0.368   3.645   8.513  0.0000  0.0000  0.0000
 4618OM     OM1 4618   0.266   3.620   8.759  0.0000  0.0000  0.0000
 4619OM     OM1 4619   0.455   3.453   8.685  0.0000  0.0000  0.0000
 4620OM     OM1 4620   7.262   1.063   0.500  0.0000  0.0000  0.0000
 4621OM     OM1 4621   7.310   0.798   0.471  0.0000  0.0000  0.0000
 4622OM     OM1 4622   7.461   0.942   0.621  0.0000  0.0000  0.0000
 4623OM     OM1 4623   6.130   7.302   1.283  0.0000  0.0000  0.0000
 4624OM     OM1 4624   6.266   7.513   1.239  0.0000  0.0000  0.0000
 4625OM     OM1 4625   6.932   7.704   9.024  0.0000  0.0000  0.0000
 4626OM     OM1 4626   7.109   7.773   9.378  0.0000  0.0000  0.0000
 4627OM     OM1 4627   7.324   7.881   9.298  0.0000  0.0000  0.0000
 4628OM     OM1 4628   2.970   6.429   0.867  0.0000  0.0000  0.0000
 4629OM     OM1 4629   2.758   6.325   0.755  0.0000  0.0000  0.0000
 4630OM     OM1 4630   3.518   1.073   0.748  0.0000  0.0000  0.0000
 4631OM     OM1 4631   3.739   1.160   0.868  0.0000  0.0000  0.0000
 4632OM     OM1 4632   3.549   1.325   0.818  0.0000  0.0000  0.0000
 4633OM     OM1 4633   3.702   1.220   0.625  0.0000  0.0000  0.0000
 4634OM     OM1 4634   8.321   6.014   0.557  0.0000  0.0000  0.0000
 4635OM     OM1 4635   8.147   5.847   0.477  0.0000  0.0000  0.0000
 4636OM     OM1 4636   2.247   7.187   8.404  0.0000  0.0000  0.0000
 4637OM     OM1 4637   2.441   7.009   8.426  0.0000  0.0000  0.0000
 4638OM     OM1 4638   2.461   7.247   8.538  0.0000  0.0000  0.0000
 4639OM     OM1 4639   5.996   3.541   0.068  0.0000  0.0000  0.0000
 4640OM     OM1 4640   6.000   3.667   0.302  0.0000  0.0000  0.0000
 4641OM     OM1 4641   1.001   4.875   9.273  0.0000  0.0000  0.0000
 4642OM     OM1 4642   1.019   4.851   9.009  0.0000  0.0000  0.0000
 4643OM     OM1 4643   1.052   4.647   9.154  0.0000  0.0000  0.0000
 4644OM     OM1 4644   0.815   4.750   9.145  0.0000  0.0000  0.0000
 4645OM     OM1 4645   3.143   1.372   8.572  0.0000  0.0000  0.0000
 4646OM     OM1 4646   2.972   1.565   8.613  0.0000  0.0000  0.0000
 4647OM     OM1 4647   3.231   1.600   8.663  0.0000  0.0000  0.0000
 4648OM     OM1 4648   3.881   4.301   1.208  0.0000  0.0000  0.0000
 4649OM     OM1 4649   3.975   4.505   1.049  0.0000  0.0000  0.0000
 4650OM     OM1 4650   3.886   4.540   1.289  0.0000  0.0000  0.0000
 4651OM     OM1 4651   4.961   6.483   0.609  0.0000  0.0000  0.0000
 4652OM     OM1 4652   5.026   6.730   0.659  0.0000  0.0000  0.0000
 4653OM     OM1 4653   4.936   6.665   0.415  0.0000  0.0000  0.0000
 4654OM     OM1 4654   6.454   1.994   0.500  0.0000  0.0000  0.0000
 4655OM     OM1 4655   6.521   1.796   0.337  0.0000  0.0000  0.0000
 4656OM     OM1 4656   6.515   2.038   0.251  0.0000  0.0000  0.0000
 4657OM     OM1 4657   6.290   1.917   0.313  0.0000  0.0000  0.0000
 4658OM     OM1 4658   1.299   1.301   8.742  0.0000  0.0000  0.0000
 4659OM     OM1 4659   1.043   1.279   8.760  0.0000  0.0000  0.0000
 4660OM     OM1 4660   2.627   2.240   0.614  0.0000  0.0000  0.0000
 4661OM     OM1 4661   2.727   2.313   0.830  0.0000  0.0000  0.0000
 4662OM     OM1 4662   2.476   2.392   0.777  0.0000  0.0000  0.0000
 4663OM     OM1 4663   2.676   2.501   0.655  0.0000  0.0000  0.0000
 4664OM     OM1 4664   9.523   2.208   0.664  0.0000  0.0000  0.0000
 4665OM     OM1 4665   0.039   2.431   0.713  0.0000  0.0000  0.0000
 4666OM     OM1 4666   9.409   2.402   0.814  0.0000  0.0000  0.0000
 4667OM     OM1 4667   7.463   8.080   8.882  0.0000  0.0000  0.0000
 4668OM     OM1 4668   7.524   8.089   8.613  0.0000  0.0000  0.0000
 4669OM     OM1 4669   7.423   7.880   8.733  0.0000  0.0000  0.0000
 4670OM     OM1 4670   7.270   8.086   8.700  0.0000  0.0000  0.0000
 4671OM     OM1 4671   3.314   6.233   0.346  0.0000  0.0000  0.0000
 4672OM     OM1 4672   3.123   6.061   0.359  0.0000  0.0000  0.0000
 4673OM     OM1 4673   3.162   6.210   0.143  0.0000  0.0000  0.0000
 4674OM     OM1 4674   3.630   8.360   8.401  0.0000  0.0000  0.0000
 4675OM     OM1 4675   3.487   8.145   8.461  0.0000  0.0000  0.0000
 4676OM     OM1 4676   3.368   8.561   8.576  0.0000  0.0000  0.0000
 4677OM     OM1 4677   3.466   8.340   8.621  0.0000  0.0000  0.0000
 4678OM     OM1 4678   8.763   3.549   8.792  0.0000  0.0000  0.0000
 4679OM     OM1 4679   8.589   3.735   8.731  0.0000  0.0000  0.0000
 4680OM     OM1 4680   8.792   3.786   8.891  0.0000  0.0000  0.0000
 4681OM     OM1 4681   8.588   3.644   8.973  0.0000  0.0000  0.0000
 4682OM     OM1 4682   9.602   1.267   9.269  0.0000  0.0000  0.0000
 4683OM     OM1 4683   0.072   1.471   9.419  0.0000  0.0000  0.0000
 4684OM     OM1 4684   1.370   0.273   9.290  0.0000  0.0000  0.0000
 4685OM     OM1 4685   1.327   0.038   9.388  0.0000  0.0000  0.0000
 4686OM     OM1 4686   1.127   0.165   9.279  0.0000  0.0000  0.0000
 4687OM     OM1 4687   1.317   0.067   9.129  0.0000  0.0000  0.0000
 4688OM     OM1 4688   4.709   5.406   0.993  0.0000  0.0000  0.0000
 4689OM     OM1 4689   4.665   5.658   1.036  0.0000  0.0000  0.0000
 4690OM     OM1 4690   4.736   5.576   0.801  0.0000  0.0000  0.0000
 4691OM     OM1 4691   2.510   6.998   1.333  0.0000  0.0000  0.0000
 4692OM     OM1 4692   2.300   6.946   1.468  0.0000  0.0000  0.0000
 4693OM     OM1 4693   2.291   7.141   1.302  0.0000  0.0000  0.0000
 4694OM     OM1 4694   3.941   4.712   0.879  0.0000  0.0000  0.0000
 4695OM     OM1 4695   4.162   4.685   1.007  0.0000  0.0000  0.0000
 4696OM     OM1 4696   9.281   7.051   0.077  0.0000  0.0000  0.0000
 4697OM     OM1 4697   9.442   6.956   9.518  0.0000  0.0000  0.0000
 4698OM     OM1 4698   8.783   8.930   0.732  0.0000  0.0000  0.0000
 4699OM     OM1 4699   8.932   9.079   0.880  0.0000  0.0000  0.0000
 4700OM     OM1 4700   3.906   4.045   1.219  0.0000  0.0000  0.0000
 4701OM     OM1 4701   3.711   4.162   1.351  0.0000  0.0000  0.0000
 4702OM     OM1 4702   1.814   2.978   0.168  0.0000  0.0000  0.0000
 4703OM     OM1 4703   1.777   2.771   0.309  0.0000  0.0000  0.0000
 4704OM     OM1 4704   1.838   2.740   0.050  0.0000  0.0000  0.0000
 4705OM     OM1 4705   1.772   7.400   8.725  0.0000  0.0000  0.0000
 4706OM     OM1 4706   2.019   7.372   8.639  0.0000  0.0000  0.0000
 4707OM     OM1 4707   1.841   7.453   8.476  0.0000  0.0000  0.0000
 4708OM     OM1 4708   6.685   2.833   8.644  0.0000  0.0000  0.0000
 4709OM     OM1 4709   6.715   2.970   8.415  0.0000  0.0000  0.0000
 4710OM     OM1 4710   6.680   3.085   8.643  0.0000  0.0000  0.0000
 4711OM     OM1 4711   5.048   2.830   0.873  0.0000  0.0000  0.0000
 4712OM     OM1 4712   5.315   2.863   0.884  0.0000  0.0000  0.0000
 4713OM     OM1 4713   5.193   2.931   0.673  0.0000  0.0000  0.0000
 4714OM     OM1 4714   5.157   3.073   0.880  0.0000  0.0000  0.0000
 4715OM     OM1 4715   1.474   0.037   8.924  0.0000  0.0000  0.0000
 4716OM     OM1 4716   1.288   0.192   8.828  0.0000  0.0000  0.0000
 4717OM     OM1 4717   5.156   8.989   9.476  0.0000  0.0000  0.0000
 4718OM     OM1 4718   5.298   8.835   9.320  0.0000  0.0000  0.0000
 4719OM     OM1 4719   5.071   8.919   9.237  0.0000  0.0000  0.0000
 4720OM     OM1 4720   5.272   9.089   9.264  0.0000  0.0000  0.0000
 4721OM     OM1 4721   7.975   4.720   0.211  0.0000  0.0000  0.0000
 4722OM     OM1 4722   8.024   4.834   0.432  0.0000  0.0000  0.0000
 4723OM     OM1 4723   8.055   4.977   0.220  0.0000  0.0000  0.0000
 4724OM     OM1 4724   8.224   4.787   0.259  0.0000  0.0000  0.0000
 4725OM     OM1 4725   1.247   8.446   9.390  0.0000  0.0000  0.0000
 4726OM     OM1 4726   1.027   8.406   9.523  0.0000  0.0000  0.0000
 4727OM     OM1 4727   1.010   8.434   9.264  0.0000  0.0000  0.0000
 4728OM     OM1 4728   1.118   8.221   9.368  0.0000  0.0000  0.0000
 4729OM     OM1 4729   0.894   1.177   9.378  0.0000  0.0000  0.0000
 4730OM     OM1 4730   0.832   1.417   9.453  0.0000  0.0000  0.0000
 4731OM     OM1 4731   0.820   1.229   0.020  0.0000  0.0000  0.0000
 4732OM     OM1 4732   6.137   4.230   1.005  0.0000  0.0000  0.0000
 4733OM     OM1 4733   6.134   4.208   1.255  0.0000  0.0000  0.0000
 4734OM     OM1 4734   5.907   4.283   1.128  0.0000  0.0000  0.0000
 4735OM     OM1 4735   5.977   4.046   1.103  0.0000  0.0000  0.0000
 4736OM     OM1 4736   5.929   5.023   1.204  0.0000  0.0000  0.0000
 4737OM     OM1 4737   5.910   4.823   1.369  0.0000  0.0000  0.0000
 4738OM     OM1 4738   5.527   5.776   1.064  0.0000  0.0000  0.0000
 4739OM     OM1 4739   5.464   5.890   0.812  0.0000  0.0000  0.0000
 4740OM     OM1 4740   5.377   5.664   0.898  0.0000  0.0000  0.0000
 4741OM     OM1 4741   5.288   5.889   0.998  0.0000  0.0000  0.0000
 4742OM     OM1 4742   6.426   3.961   9.588  0.0000  0.0000  0.0000
 4743OM     OM1 4743   6.543   4.154   9.457  0.0000  0.0000  0.0000
 4744OM     OM1 4744   6.527   3.898   9.365  0.0000  0.0000  0.0000
 4745OM     OM1 4745   8.733   0.340   0.081  0.0000  0.0000  0.0000
 4746OM     OM1 4746   8.688   0.256   9.431  0.0000  0.0000  0.0000
 4747OM     OM1 4747   3.049   0.552   9.095  0.0000  0.0000  0.0000
 4748OM     OM1 4748   2.960   0.795   9.149  0.0000  0.0000  0.0000
 4749OM     OM1 4749   3.198   0.749   9.055  0.0000  0.0000  0.0000
 4750OM     OM1 4750   0.062   6.626   9.089  0.0000  0.0000  0.0000
 4751OM     OM1 4751   9.427   6.716   8.996  0.0000  0.0000  0.0000
 4752OM     OM1 4752   8.133   5.214   0.133  0.0000  0.0000  0.0000
 4753OM     OM1 4753   8.140   5.157   0.386  0.0000  0.0000  0.0000
 4754OM     OM1 4754   7.910   5.192   0.260  0.0000  0.0000  0.0000
 4755OM     OM1 4755   7.772   5.363   0.116  0.0000  0.0000  0.0000
 4756OM     OM1 4756   6.716   6.384   8.942  0.0000  0.0000  0.0000
 4757OM     OM1 4757   6.860   6.183   8.876  0.0000  0.0000  0.0000
 4758OM     OM1 4758   6.642   6.244   8.728  0.0000  0.0000  0.0000
 4759OM     OM1 4759   6.233   6.300   0.880  0.0000  0.0000  0.0000
 4760OM     OM1 4760   6.038   6.116   0.958  0.0000  0.0000  0.0000
 4761OM     OM1 4761   6.011   6.260   0.757  0.0000  0.0000  0.0000
 4762OM     OM1 4762   5.350   2.781   0.525  0.0000  0.0000  0.0000
 4763OM     OM1 4763   5.121   2.698   0.622  0.0000  0.0000  0.0000
 4764OM     OM1 4764   5.130   2.879   0.424  0.0000  0.0000  0.0000
 4765OM     OM1 4765   7.501   1.066   0.008  0.0000  0.0000  0.0000
 4766OM     OM1 4766   4.272   9.182   8.807  0.0000  0.0000  0.0000
 4767OM     OM1 4767   4.092   9.169   8.611  0.0000  0.0000  0.0000
 4768OM     OM1 4768   4.050   9.306   8.818  0.0000  0.0000  0.0000
 4769OM     OM1 4769   0.526   5.199   9.423  0.0000  0.0000  0.0000
 4770OM     OM1 4770   0.501   5.385   9.600  0.0000  0.0000  0.0000
 4771OM     OM1 4771   6.685   9.579   8.271  0.0000  0.0000  0.0000
 4772OM     OM1 4772   6.879   9.441   8.374  0.0000  0.0000  0.0000
 4773OM     OM1 4773   5.698   1.524   1.159  0.0000  0.0000  0.0000
 4774OM     OM1 4774   5.861   1.491   0.957  0.0000  0.0000  0.0000
 4775OM     OM1 4775   5.812   1.298   1.123  0.0000  0.0000  0.0000
 4776OM     OM1 4776   5.953   1.514   1.211  0.0000  0.0000  0.0000
 4777OM     OM1 4777   6.791   0.168   1.199  0.0000  0.0000  0.0000
 4778OM     OM1 4778   6.790   0.002   1.007  0.0000  0.0000  0.0000
 4779OM     OM1 4779   6.668   9.536   1.211  0.0000  0.0000  0.0000
 4780OM     OM1 4780   6.571   0.123   1.044  0.0000  0.0000  0.0000
 4781OM     OM1 4781   4.290   2.245   9.203  0.0000  0.0000  0.0000
 4782OM     OM1 4782   4.353   2.189   8.953  0.0000  0.0000  0.0000
 4783OM     OM1 4783   4.474   2.075   9.271  0.0000  0.0000  0.0000
 4784OM     OM1 4784   6.606   5.284   1.075  0.0000  0.0000  0.0000
 4785OM     OM1 4785   6.655   5.046   0.995  0.0000  0.0000  0.0000
 4786OM     OM1 4786   1.148   6.129   9.601  0.0000  0.0000  0.0000
 4787OM     OM1 4787   1.413   6.166   9.535  0.0000  0.0000  0.0000
 4788OM     OM1 4788   1.328   6.022   0.145  0.0000  0.0000  0.0000
 4789OM     OM1 4789   8.043   7.823   8.327  0.0000  0.0000  0.0000
 4790OM     OM1 4790   3.109   8.293   1.217  0.0000  0.0000  0.0000
 4791OM     OM1 4791   3.262   8.520   1.225  0.0000  0.0000  0.0000
 4792OM     OM1 4792   3.343   8.298   1.339  0.0000  0.0000  0.0000
 4793OM     OM1 4793   5.376   9.107   0.732  0.0000  0.0000  0.0000
 4794OM     OM1 4794   5.150   9.098   0.621  0.0000  0.0000  0.0000
 4795OM     OM1 4795   1.334   1.495   1.387  0.0000  0.0000  0.0000
 4796OM     OM1 4796   8.743   9.137   9.520  0.0000  0.0000  0.0000
 4797OM     OM1 4797   8.704   9.147   9.269  0.0000  0.0000  0.0000
 4798OM     OM1 4798   8.554   8.999   9.424  0.0000  0.0000  0.0000
 4799OM     OM1 4799   8.816   8.940   9.343  0.0000  0.0000  0.0000
 4800OM     OM1 4800   9.044   1.442   1.190  0.0000  0.0000  0.0000
 4801OM     OM1 4801   8.781   0.017   9.400  0.0000  0.0000  0.0000
 4802OM     OM1 4802   8.535   0.045   9.367  0.0000  0.0000  0.0000
 4803OM     OM1 4803   8.670   9.385   9.469  0.0000  0.0000  0.0000
 4804OM     OM1 4804   1.720   4.075   0.637  0.0000  0.0000  0.0000
 4805OM     OM1 4805   1.608   3.848   0.582  0.0000  0.0000  0.0000
 4806OM     OM1 4806   1.683   3.962   0.162  0.0000  0.0000  0.0000
 4807OM     OM1 4807   3.132   2.498   8.562  0.0000  0.0000  0.0000
 4808OM     OM1 4808   3.162   2.240   8.518  0.0000  0.0000  0.0000
 4809OM     OM1 4809   2.951   2.360   8.434  0.0000  0.0000  0.0000
 4810OM     OM1 4810   5.872   4.418   8.326  0.0000  0.0000  0.0000
 4811OM     OM1 4811   6.068   4.563   8.392  0.0000  0.0000  0.0000
 4812OM     OM1 4812   5.978   4.206   8.415  0.0000  0.0000  0.0000
 4813OM     OM1 4813   8.969   2.882   8.443  0.0000  0.0000  0.0000
 4814OM     OM1 4814   9.043   2.680   8.299  0.0000  0.0000  0.0000
 4815OM     OM1 4815   4.606   5.682   8.295  0.0000  0.0000  0.0000
 4816OM     OM1 4816   4.848   5.580   8.291  0.0000  0.0000  0.0000
 4817OM     OM1 4817   5.736   5.456   8.297  0.0000  0.0000  0.0000
 4818OM     OM1 4818   6.220   4.272   0.036  0.0000  0.0000  0.0000
 4819OM     OM1 4819   6.096   4.045   0.065  0.0000  0.0000  0.0000
 4820OM     OM1 4820   6.044   4.234   0.219  0.0000  0.0000  0.0000
 4821OM     OM1 4821   0.534   3.938   0.512  0.0000  0.0000  0.0000
 4822OM     OM1 4822   0.290   3.879   0.443  0.0000  0.0000  0.0000
 4823OM     OM1 4823   0.498   3.814   0.291  0.0000  0.0000  0.0000
 4824OM     OM1 4824   0.452   3.687   0.512  0.0000  0.0000  0.0000
 4825OM     OM1 4825   4.256   0.186   1.178  0.0000  0.0000  0.0000
 4826OM     OM1 4826   4.075   0.022   1.227  0.0000  0.0000  0.0000
 4827OM     OM1 4827   4.025   0.221   1.057  0.0000  0.0000  0.0000
 4828OM     OM1 4828   6.117   8.175   9.059  0.0000  0.0000  0.0000
 4829OM     OM1 4829   6.161   8.261   8.822  0.0000  0.0000  0.0000
 4830OM     OM1 4830   6.027   8.035   8.859  0.0000  0.0000  0.0000
 4831OM     OM1 4831   5.806   3.242   8.954  0.0000  0.0000  0.0000
 4832OM     OM1 4832   6.060   3.275   8.987  0.0000  0.0000  0.0000
 4833OM     OM1 4833   5.962   3.238   8.745  0.0000  0.0000  0.0000
 4834OM     OM1 4834   5.954   3.031   8.887  0.0000  0.0000  0.0000
 4835OM     OM1 4835   3.543   6.942   0.084  0.0000  0.0000  0.0000
 4836OM     OM1 4836   3.315   6.894   0.195  0.0000  0.0000  0.0000
 4837OM     OM1 4837   3.363   7.123   0.050  0.0000  0.0000  0.0000
 4838OM     OM1 4838   7.975   3.267   8.904  0.0000  0.0000  0.0000
 4839OM     OM1 4839   7.735   3.378   8.865  0.0000  0.0000  0.0000
 4840OM     OM1 4840   7.841   3.221   8.681  0.0000  0.0000  0.0000
 4841OM     OM1 4841   5.787   8.463   0.686  0.0000  0.0000  0.0000
 4842OM     OM1 4842   5.597   8.457   0.509  0.0000  0.0000  0.0000
 4843OM     OM1 4843   5.838   8.461   0.418  0.0000  0.0000  0.0000
 4844OM     OM1 4844   5.748   8.675   0.525  0.0000  0.0000  0.0000
 4845OM     OM1 4845   8.337   1.946   0.239  0.0000  0.0000  0.0000
 4846OM     OM1 4846   8.556   1.857   0.110  0.0000  0.0000  0.0000
 4847OM     OM1 4847   8.397   2.036   0.000  0.0000  0.0000  0.0000
 4848OM     OM1 4848   5.606   2.230   8.444  0.0000  0.0000  0.0000
 4849OM     OM1 4849   5.822   2.315   8.352  0.0000  0.0000  0.0000
 4850OM     OM1 4850   8.621   2.822   9.586  0.0000  0.0000  0.0000
 4851OM     OM1 4851   8.553   2.583   9.506  0.0000  0.0000  0.0000
 4852OM     OM1 4852   8.509   2.787   9.358  0.0000  0.0000  0.0000
 4853OM     OM1 4853   3.907   2.278   8.585  0.0000  0.0000  0.0000
 4854OM     OM1 4854   4.058   2.433   8.439  0.0000  0.0000  0.0000
 4855OM     OM1 4855   3.935   2.524   8.646  0.0000  0.0000  0.0000
 4856OM     OM1 4856   2.874   5.659   0.788  0.0000  0.0000  0.0000
 4857OM     OM1 4857   2.820   5.713   0.539  0.0000  0.0000  0.0000
 4858OM     OM1 4858   1.495   3.341   0.219  0.0000  0.0000  0.0000
 4859OM     OM1 4859   1.423   3.190   0.414  0.0000  0.0000  0.0000
 4860OM     OM1 4860   1.702   3.610   0.544  0.0000  0.0000  0.0000
 4861OM     OM1 4861   7.216   2.306   8.298  0.0000  0.0000  0.0000
 4862OM     OM1 4862   7.458   2.226   8.318  0.0000  0.0000  0.0000
 4863OM     OM1 4863   2.366   2.746   8.842  0.0000  0.0000  0.0000
 4864OM     OM1 4864   2.478   2.953   8.946  0.0000  0.0000  0.0000
 4865OM     OM1 4865   2.571   2.850   8.723  0.0000  0.0000  0.0000
 4866OM     OM1 4866   2.340   2.981   8.727  0.0000  0.0000  0.0000
 4867OM     OM1 4867   6.684   5.538   0.001  0.0000  0.0000  0.0000
 4868OM     OM1 4868   6.550   5.758   9.543  0.0000  0.0000  0.0000
 4869OM     OM1 4869   6.599   5.704   0.185  0.0000  0.0000  0.0000
 4870OM     OM1 4870   6.917   0.827   1.361  0.0000  0.0000  0.0000
 4871OM     OM1 4871   6.892   1.084   1.297  0.0000  0.0000  0.0000
 4872OM     OM1 4872   6.362   0.521   9.404  0.0000  0.0000  0.0000
 4873OM     OM1 4873   0.079   1.613   8.902  0.0000  0.0000  0.0000
 4874OM     OM1 4874   0.113   1.839   9.037  0.0000  0.0000  0.0000
 4875OM     OM1 4875   0.042   1.830   8.783  0.0000  0.0000  0.0000
 4876OM     OM1 4876   5.164   4.615   9.354  0.0000  0.0000  0.0000
 4877OM     OM1 4877   5.428   4.651   9.340  0.0000  0.0000  0.0000
 4878OM     OM1 4878   5.303   4.503   9.169  0.0000  0.0000  0.0000
 4879OM     OM1 4879   6.591   8.104   1.186  0.0000  0.0000  0.0000
 4880OM     OM1 4880   5.176   2.526   8.566  0.0000  0.0000  0.0000
 4881OM     OM1 4881   4.971   2.449   8.708  0.0000  0.0000  0.0000
 4882OM     OM1 4882   5.181   2.493   8.839  0.0000  0.0000  0.0000
 4883OM     OM1 4883   7.905   4.659   0.583  0.0000  0.0000  0.0000
 4884OM     OM1 4884   8.075   4.836   0.679  0.0000  0.0000  0.0000
 4885OM     OM1 4885   7.830   4.906   0.588  0.0000  0.0000  0.0000
 4886OM     OM1 4886   8.347   4.798   1.296  0.0000  0.0000  0.0000
 4887OM     OM1 4887   3.007   5.955   0.917  0.0000  0.0000  0.0000
 4888OM     OM1 4888   3.236   5.875   1.027  0.0000  0.0000  0.0000
 4889OM     OM1 4889   3.108   5.721   0.872  0.0000  0.0000  0.0000
 4890OM     OM1 4890   3.225   5.940   0.775  0.0000  0.0000  0.0000
 4891OM     OM1 4891   1.050   0.495   9.111  0.0000  0.0000  0.0000
 4892OM     OM1 4892   1.068   0.288   8.947  0.0000  0.0000  0.0000
 4893OM     OM1 4893   0.922   0.270   9.161  0.0000  0.0000  0.0000
 4894OM     OM1 4894   0.964   1.869   8.305  0.0000  0.0000  0.0000
 4895OM     OM1 4895   3.669   7.861   8.443  0.0000  0.0000  0.0000
 4896OM     OM1 4896   3.691   7.665   8.287  0.0000  0.0000  0.0000
 4897OM     OM1 4897   2.884   3.298   8.904  0.0000  0.0000  0.0000
 4898OM     OM1 4898   2.924   3.479   9.083  0.0000  0.0000  0.0000
 4899OM     OM1 4899   2.677   6.178   8.698  0.0000  0.0000  0.0000
 4900OM     OM1 4900   2.559   6.238   8.475  0.0000  0.0000  0.0000
 4901OM     OM1 4901   2.525   6.495   8.489  0.0000  0.0000  0.0000
 4902OM     OM1 4902   2.803   9.033   9.197  0.0000  0.0000  0.0000
 4903OM     OM1 4903   2.804   8.843   9.002  0.0000  0.0000  0.0000
 4904OM     OM1 4904   2.985   9.021   9.007  0.0000  0.0000  0.0000
 4905OM     OM1 4905   2.734   9.090   8.953  0.0000  0.0000  0.0000
 4906OM     OM1 4906   0.205   0.508   9.395  0.0000  0.0000  0.0000
 4907OM     OM1 4907   0.031   0.675   9.281  0.0000  0.0000  0.0000
 4908OM     OM1 4908   0.148   0.729   9.507  0.0000  0.0000  0.0000
 4909OM     OM1 4909   0.286   0.725   9.283  0.0000  0.0000  0.0000
 4910OM     OM1 4910   6.023   3.581   9.389  0.0000  0.0000  0.0000
 4911OM     OM1 4911   6.061   3.763   9.206  0.0000  0.0000  0.0000
 4912OM     OM1 4912   5.834   3.624   9.227  0.0000  0.0000  0.0000
 4913OM     OM1 4913   6.052   3.505   9.134  0.0000  0.0000  0.0000
 4914OM     OM1 4914   7.609   3.283   9.564  0.0000  0.0000  0.0000
 4915OM     OM1 4915   7.679   3.545   9.580  0.0000  0.0000  0.0000
 4916OM     OM1 4916   7.751   3.363   0.150  0.0000  0.0000  0.0000
 4917OM     OM1 4917   7.848   3.361   9.513  0.0000  0.0000  0.0000
 4918OM     OM1 4918   5.680   2.151   9.520  0.0000  0.0000  0.0000
 4919OM     OM1 4919   5.824   1.962   9.416  0.0000  0.0000  0.0000
 4920OM     OM1 4920   5.729   1.950   0.062  0.0000  0.0000  0.0000
 4921OM     OM1 4921   5.930   2.107   9.599  0.0000  0.0000  0.0000
 4922OM     OM1 4922   8.828   2.405   1.311  0.0000  0.0000  0.0000
 4923OM     OM1 4923   1.376   2.900   9.187  0.0000  0.0000  0.0000
 4924OM     OM1 4924   1.313   2.706   9.012  0.0000  0.0000  0.0000
 4925OM     OM1 4925   1.181   2.933   9.023  0.0000  0.0000  0.0000
 4926OM     OM1 4926   1.627   5.647   0.693  0.0000  0.0000  0.0000
 4927OM     OM1 4927   1.454   5.749   0.865  0.0000  0.0000  0.0000
 4928OM     OM1 4928   1.671   5.631   0.954  0.0000  0.0000  0.0000
 4929OM     OM1 4929   0.581   3.592   8.370  0.0000  0.0000  0.0000
 4930OM     OM1 4930   0.345   3.543   8.285  0.0000  0.0000  0.0000
 4931OM     OM1 4931   7.625   6.157   9.205  0.0000  0.0000  0.0000
 4932OM     OM1 4932   5.058   1.096   1.187  0.0000  0.0000  0.0000
 4933OM     OM1 4933   1.136   8.642   0.903  0.0000  0.0000  0.0000
 4934OM     OM1 4934   1.155   8.399   0.794  0.0000  0.0000  0.0000
 4935OM     OM1 4935   1.318   8.605   0.721  0.0000  0.0000  0.0000
 4936OM     OM1 4936   1.070   8.589   0.655  0.0000  0.0000  0.0000
 4937OM     OM1 4937   0.713   4.928   8.373  0.0000  0.0000  0.0000
 4938OM     OM1 4938   1.148   5.105   8.436  0.0000  0.0000  0.0000
 4939OM     OM1 4939   0.888   5.127   8.400  0.0000  0.0000  0.0000
 4940OM     OM1 4940   5.323   0.491   8.970  0.0000  0.0000  0.0000
 4941OM     OM1 4941   5.459   0.578   9.253  0.0000  0.0000  0.0000
 4942OM     OM1 4942   5.207   0.532   9.193  0.0000  0.0000  0.0000
 4943OM     OM1 4943   5.309   0.763   9.147  0.0000  0.0000  0.0000
 4944OM     OM1 4944   1.079   6.598   9.152  0.0000  0.0000  0.0000
 4945OM     OM1 4945   1.017   6.353   9.211  0.0000  0.0000  0.0000
 4946OM     OM1 4946   0.825   6.520   9.176  0.0000  0.0000  0.0000
 4947OM     OM1 4947   6.510   3.790   9.132  0.0000  0.0000  0.0000
 4948OM     OM1 4948   6.296   3.797   9.301  0.0000  0.0000  0.0000
 4949OM     OM1 4949   6.498   3.633   9.336  0.0000  0.0000  0.0000
 4950OM     OM1 4950   3.694   2.184   0.968  0.0000  0.0000  0.0000
 4951OM     OM1 4951   3.821   2.343   0.797  0.0000  0.0000  0.0000
 4952OM     OM1 4952   3.778   2.419   1.039  0.0000  0.0000  0.0000
 4953OM     OM1 4953   3.948   2.228   0.990  0.0000  0.0000  0.0000
 4954OM     OM1 4954   5.670   6.581   1.060  0.0000  0.0000  0.0000
 4955OM     OM1 4955   5.580   6.520   1.299  0.0000  0.0000  0.0000
 4956OM     OM1 4956   5.759   6.365   1.195  0.0000  0.0000  0.0000
 4957OM     OM1 4957   4.459   4.173   0.728  0.0000  0.0000  0.0000
 4958OM     OM1 4958   4.518   4.036   0.518  0.0000  0.0000  0.0000
 4959OM     OM1 4959   4.494   4.297   0.506  0.0000  0.0000  0.0000
 4960OM     OM1 4960   4.701   4.200   0.635  0.0000  0.0000  0.0000
 4961OM     OM1 4961   5.374   2.392   1.318  0.0000  0.0000  0.0000
 4962OM     OM1 4962   2.146   2.217   0.959  0.0000  0.0000  0.0000
 4963OM     OM1 4963   2.201   2.296   1.201  0.0000  0.0000  0.0000
 4964OM     OM1 4964   6.579   0.050   0.786  0.0000  0.0000  0.0000
 4965OM     OM1 4965   6.450   0.270   0.864  0.0000  0.0000  0.0000
 4966OM     OM1 4966   6.363   0.024   0.925  0.0000  0.0000  0.0000
 4967OM     OM1 4967   4.960   1.615   0.966  0.0000  0.0000  0.0000
 4968OM     OM1 4968   5.169   1.750   1.006  0.0000  0.0000  0.0000
 4969OM     OM1 4969   8.510   1.783   8.532  0.0000  0.0000  0.0000
 4970OM     OM1 4970   8.601   2.031   8.532  0.0000  0.0000  0.0000
 4971OM     OM1 4971   8.522   1.917   8.309  0.0000  0.0000  0.0000
 4972OM     OM1 4972   8.719   8.164   9.416  0.0000  0.0000  0.0000
 4973OM     OM1 4973   8.922   8.319   9.391  0.0000  0.0000  0.0000
 4974OM     OM1 4974   8.682   8.419   9.350  0.0000  0.0000  0.0000
 4975OM     OM1 4975   8.789   8.249   9.180  0.0000  0.0000  0.0000
 4976OM     OM1 4976   7.777   8.777   9.230  0.0000  0.0000  0.0000
 4977OM     OM1 4977   7.929   8.923   9.043  0.0000  0.0000  0.0000
 4978OM     OM1 4978   8.006   8.709   9.162  0.0000  0.0000  0.0000
 4979OM     OM1 4979   8.044   0.531   9.172  0.0000  0.0000  0.0000
 4980OM     OM1 4980   8.154   0.322   9.285  0.0000  0.0000  0.0000
 4981OM     OM1 4981   5.711   1.643   8.265  0.0000  0.0000  0.0000
 4982OM     OM1 4982   5.577   1.458   8.392  0.0000  0.0000  0.0000
 4983OM     OM1 4983   6.095   7.924   0.492  0.0000  0.0000  0.0000
 4984OM     OM1 4984   5.962   8.124   0.409  0.0000  0.0000  0.0000
 4985OM     OM1 4985   6.134   8.160   0.605  0.0000  0.0000  0.0000
 4986OM     OM1 4986   1.721   3.596   9.512  0.0000  0.0000  0.0000
 4987OM     OM1 4987   1.579   3.509   9.323  0.0000  0.0000  0.0000
 4988OM     OM1 4988   1.533   3.416   9.567  0.0000  0.0000  0.0000
 4989OM     OM1 4989   3.544   7.681   9.405  0.0000  0.0000  0.0000
 4990OM     OM1 4990   2.827   8.061   8.526  0.0000  0.0000  0.0000
 4991OM     OM1 4991   2.960   7.988   8.308  0.0000  0.0000  0.0000
 4992OM     OM1 4992   8.059   8.892   0.729  0.0000  0.0000  0.0000
 4993OM     OM1 4993   8.298   8.989   0.699  0.0000  0.0000  0.0000
 4994OM     OM1 4994   8.204   3.451   1.255  0.0000  0.0000  0.0000
 4995OM     OM1 4995   8.429   3.584   1.249  0.0000  0.0000  0.0000
 4996OM     OM1 4996   2.989   2.023   1.239  0.0000  0.0000  0.0000
 4997OM     OM1 4997   2.764   2.126   1.276  0.0000  0.0000  0.0000
 4998OM     OM1 4998   7.248   5.246   8.539  0.0000  0.0000  0.0000
 4999OM     OM1 4999   7.520   5.228   8.559  0.0000  0.0000  0.0000
 5000OM     OM1 5000   7.393   5.380   8.379  0.0000  0.0000  0.0000
 5001OM     OM1 5001   7.403   5.103   8.387  0.0000  0.0000  0.0000
 5002OM     OM1 5002   2.034   3.817   9.222  0.0000  0.0000  0.0000
 5003OM     OM1 5003   1.865   3.702   9.068  0.0000  0.0000  0.0000
 5004OM     OM1 5004   1.798   3.759   9.326  0.0000  0.0000  0.0000
 5005OM     OM1 5005   3.768   9.399   9.564  0.0000  0.0000  0.0000
 5006OM     OM1 5006   3.550   9.538   9.601  0.0000  0.0000  0.0000
 5007OM     OM1 5007   3.561   9.286   0.074  0.0000  0.0000  0.0000
 5008OM     OM1 5008   7.894   6.093   0.161  0.0000  0.0000  0.0000
 5009OM     OM1 5009   7.861   6.349   0.123  0.0000  0.0000  0.0000
 5010OM     OM1 5010   7.528   9.497   0.372  0.0000  0.0000  0.0000
 5011OM     OM1 5011   7.627   9.389   0.586  0.0000  0.0000  0.0000
 5012OM     OM1 5012   7.927   0.025   0.511  0.0000  0.0000  0.0000
 5013OM     OM1 5013   7.694   0.080   0.405  0.0000  0.0000  0.0000
 5014OM     OM1 5014   5.304   1.535   9.162  0.0000  0.0000  0.0000
 5015OM     OM1 5015   5.357   1.323   9.020  0.0000  0.0000  0.0000
 5016OM     OM1 5016   5.231   1.524   8.899  0.0000  0.0000  0.0000
 5017OM     OM1 5017   5.116   1.389   9.081  0.0000  0.0000  0.0000
 5018OM     OM1 5018   3.530   4.509   8.547  0.0000  0.0000  0.0000
 5019OM     OM1 5019   3.564   4.539   8.272  0.0000  0.0000  0.0000
 5020OM     OM1 5020   3.336   4.492   8.377  0.0000  0.0000  0.0000
 5021OM     OM1 5021   8.376   1.101   9.322  0.0000  0.0000  0.0000
 5022OM     OM1 5022   6.313   5.094   9.006  0.0000  0.0000  0.0000
 5023OM     OM1 5023   6.097   4.967   9.031  0.0000  0.0000  0.0000
 5024OM     OM1 5024   6.127   5.163   8.850  0.0000  0.0000  0.0000
 5025OM     OM1 5025   6.083   5.215   9.099  0.0000  0.0000  0.0000
 5026OM     OM1 5026   2.145   0.132   0.852  0.0000  0.0000  0.0000
 5027OM     OM1 5027   2.060   0.379   0.826  0.0000  0.0000  0.0000
 5028OM     OM1 5028   0.011   2.276   9.544  0.0000  0.0000  0.0000
 5029OM     OM1 5029   9.440   2.234   9.354  0.0000  0.0000  0.0000
 5030OM     OM1 5030   0.057   6.875   1.314  0.0000  0.0000  0.0000
 5031OM     OM1 5031   9.547   6.996   1.106  0.0000  0.0000  0.0000
 5032OM     OM1 5032   0.055   7.509   9.296  0.0000  0.0000  0.0000
 5033OM     OM1 5033   0.021   7.615   9.057  0.0000  0.0000  0.0000
 5034OM     OM1 5034   9.584   7.759   9.261  0.0000  0.0000  0.0000
 5035OM     OM1 5035   9.418   7.551   9.205  0.0000  0.0000  0.0000
 5036OM     OM1 5036   4.871   4.013   8.844  0.0000  0.0000  0.0000
 5037OM     OM1 5037   5.097   3.892   8.786  0.0000  0.0000  0.0000
 5038OM     OM1 5038   1.050   3.520   8.366  0.0000  0.0000  0.0000
 5039OM     OM1 5039   6.890   0.311   8.349  0.0000  0.0000  0.0000
 5040OM     OM1 5040   7.114   0.422   8.356  0.0000  0.0000  0.0000
 5041OM     OM1 5041   7.096   0.147   8.362  0.0000  0.0000  0.0000
 5042OM     OM1 5042   7.053   0.291   8.568  0.0000  0.0000  0.0000
 5043OM     OM1 5043   2.059   9.193   1.375  0.0000  0.0000  0.0000
 5044OM     OM1 5044   2.134   9.374   1.209  0.0000  0.0000  0.0000
 5045OM     OM1 5045   7.310   8.915   9.310  0.0000  0.0000  0.0000
 5046OM     OM1 5046   7.278   8.944   9.560  0.0000  0.0000  0.0000
 5047OM     OM1 5047   7.193   9.131   9.399  0.0000  0.0000  0.0000
 5048OM     OM1 5048   1.412   7.148   0.232  0.0000  0.0000  0.0000
 5049OM     OM1 5049   1.629   6.903   9.480  0.0000  0.0000  0.0000
 5050OM     OM1 5050   1.478   6.956   0.072  0.0000  0.0000  0.0000
 5051OM     OM1 5051   1.452   6.906   0.325  0.0000  0.0000  0.0000
 5052OM     OM1 5052   4.900   4.633   9.338  0.0000  0.0000  0.0000
 5053OM     OM1 5053   5.003   4.448   9.479  0.0000  0.0000  0.0000
 5054OM     OM1 5054   9.445   1.159   8.290  0.0000  0.0000  0.0000
 5055OM     OM1 5055   0.043   1.174   8.457  0.0000  0.0000  0.0000
 5056OM     OM1 5056   4.823   4.649   1.049  0.0000  0.0000  0.0000
 5057OM     OM1 5057   4.947   4.523   0.854  0.0000  0.0000  0.0000
 5058OM     OM1 5058   4.988   4.446   1.100  0.0000  0.0000  0.0000
 5059OM     OM1 5059   4.704   5.198   0.657  0.0000  0.0000  0.0000
 5060OM     OM1 5060   4.666   5.626   0.553  0.0000  0.0000  0.0000
 5061OM     OM1 5061   4.566   5.420   0.677  0.0000  0.0000  0.0000
 5062OM     OM1 5062   7.305   0.276   0.133  0.0000  0.0000  0.0000
 5063OM     OM1 5063   7.191   0.302   9.499  0.0000  0.0000  0.0000
 5064OM     OM1 5064   7.084   0.409   0.116  0.0000  0.0000  0.0000
 5065OM     OM1 5065   7.812   7.601   0.647  0.0000  0.0000  0.0000
 5066OM     OM1 5066   7.782   7.862   0.622  0.0000  0.0000  0.0000
 5067OM     OM1 5067   8.002   7.751   0.559  0.0000  0.0000  0.0000
 5068OM     OM1 5068   3.267   0.802   8.527  0.0000  0.0000  0.0000
 5069OM     OM1 5069   3.076   0.701   8.375  0.0000  0.0000  0.0000
 5070OM     OM1 5070   3.048   0.689   8.634  0.0000  0.0000  0.0000
 5071OM     OM1 5071   1.119   9.488   0.586  0.0000  0.0000  0.0000
 5072OM     OM1 5072   1.368   9.502   0.609  0.0000  0.0000  0.0000
 5073OM     OM1 5073   1.219   9.433   0.817  0.0000  0.0000  0.0000
 5074OM     OM1 5074   9.065   7.775   8.952  0.0000  0.0000  0.0000
 5075OM     OM1 5075   9.252   7.829   9.117  0.0000  0.0000  0.0000
 5076OM     OM1 5076   9.178   7.579   9.108  0.0000  0.0000  0.0000
 5077OM     OM1 5077   9.297   7.683   8.903  0.0000  0.0000  0.0000
 5078OM     OM1 5078   3.767   8.892   0.682  0.0000  0.0000  0.0000
 5079OM     OM1 5079   3.645   8.773   0.874  0.0000  0.0000  0.0000
 5080OM     OM1 5080   3.510   8.828   0.662  0.0000  0.0000  0.0000
 5081OM     OM1 5081   4.811   8.484   8.664  0.0000  0.0000  0.0000
 5082OM     OM1 5082   4.578   8.513   8.548  0.0000  0.0000  0.0000
 5083OM     OM1 5083   8.773   5.974   0.017  0.0000  0.0000  0.0000
 5084OM     OM1 5084   9.004   5.935   0.128  0.0000  0.0000  0.0000
 5085OM     OM1 5085   0.409   6.234   0.863  0.0000  0.0000  0.0000
 5086OM     OM1 5086   0.341   6.001   0.763  0.0000  0.0000  0.0000
 5087OM     OM1 5087   0.559   6.015   0.896  0.0000  0.0000  0.0000
 5088OM     OM1 5088   0.580   1.694   0.888  0.0000  0.0000  0.0000
 5089OM     OM1 5089   0.342   1.806   0.911  0.0000  0.0000  0.0000
 5090OM     OM1 5090   0.381   1.564   0.995  0.0000  0.0000  0.0000
 5091OM     OM1 5091   0.486   1.749   1.132  0.0000  0.0000  0.0000
 5092OM     OM1 5092   2.491   0.056   8.373  0.0000  0.0000  0.0000
 5093OM     OM1 5093   2.456   0.319   8.357  0.0000  0.0000  0.0000
 5094OM     OM1 5094   2.418   0.215   8.580  0.0000  0.0000  0.0000
 5095OM     OM1 5095   2.256   0.150   8.383  0.0000  0.0000  0.0000
 5096OM     OM1 5096   2.546   1.043   0.008  0.0000  0.0000  0.0000
 5097OM     OM1 5097   2.528   1.262   0.145  0.0000  0.0000  0.0000
 5098OM     OM1 5098   2.743   1.214   0.006  0.0000  0.0000  0.0000
 5099OM     OM1 5099   2.694   1.080   0.225  0.0000  0.0000  0.0000
 5100OM     OM1 5100   5.171   5.163   0.133  0.0000  0.0000  0.0000
 5101OM     OM1 5101   5.421   5.216   0.067  0.0000  0.0000  0.0000
 5102OM     OM1 5102   5.294   5.383   0.217  0.0000  0.0000  0.0000
 5103OM     OM1 5103   5.340   5.150   0.323  0.0000  0.0000  0.0000
 5104OM     OM1 5104   6.940   3.012   8.303  0.0000  0.0000  0.0000
 5105OM     OM1 5105   6.794   3.218   8.389  0.0000  0.0000  0.0000
 5106OM     OM1 5106   2.819   2.182   1.028  0.0000  0.0000  0.0000
 5107OM     OM1 5107   2.576   2.146   1.103  0.0000  0.0000  0.0000
 5108OM     OM1 5108   8.576   5.257   0.319  0.0000  0.0000  0.0000
 5109OM     OM1 5109   8.670   5.012   0.323  0.0000  0.0000  0.0000
 5110OM     OM1 5110   8.483   5.073   0.482  0.0000  0.0000  0.0000
 5111OM     OM1 5111   8.438   5.066   0.222  0.0000  0.0000  0.0000
 5112OM     OM1 5112   6.855   9.027   9.221  0.0000  0.0000  0.0000
 5113OM     OM1 5113   6.857   9.283   9.180  0.0000  0.0000  0.0000
 5114OM     OM1 5114   7.039   9.138   9.065  0.0000  0.0000  0.0000
 5115OM     OM1 5115   7.007   9.322   9.389  0.0000  0.0000  0.0000
 5116OM     OM1 5116   5.663   4.229   1.015  0.0000  0.0000  0.0000
 5117OM     OM1 5117   5.879   4.296   0.877  0.0000  0.0000  0.0000
 5118OM     OM1 5118   8.156   4.317   8.576  0.0000  0.0000  0.0000
 5119OM     OM1 5119   8.189   4.497   8.765  0.0000  0.0000  0.0000
 5120OM     OM1 5120   8.390   4.354   8.688  0.0000  0.0000  0.0000
 5121OM     OM1 5121   8.302   4.541   8.536  0.0000  0.0000  0.0000
 5122OM     OM1 5122   3.965   5.184   0.364  0.0000  0.0000  0.0000
 5123OM     OM1 5123   3.924   4.943   0.281  0.0000  0.0000  0.0000
 5124OM     OM1 5124   4.080   4.970   0.487  0.0000  0.0000  0.0000
 5125OM     OM1 5125   3.769   4.767   0.385  0.0000  0.0000  0.0000
 5126OM     OM1 5126   3.837   4.742   0.133  0.0000  0.0000  0.0000
 5127OM     OM1 5127   6.878   7.102   8.684  0.0000  0.0000  0.0000
 5128OM     OM1 5128   7.106   6.987   8.616  0.0000  0.0000  0.0000
 5129OM     OM1 5129   7.106   7.235   8.700  0.0000  0.0000  0.0000
 5130OM     OM1 5130   5.369   0.125   8.294  0.0000  0.0000  0.0000
 5131OM     OM1 5131   5.295   9.502   8.377  0.0000  0.0000  0.0000
 5132OM     OM1 5132   5.106   0.039   8.282  0.0000  0.0000  0.0000
 5133OM     OM1 5133   3.538   3.561   8.290  0.0000  0.0000  0.0000
 5134OM     OM1 5134   3.449   3.801   8.332  0.0000  0.0000  0.0000
 5135OM     OM1 5135   6.324   9.023   8.365  0.0000  0.0000  0.0000
 5136OM     OM1 5136   6.377   9.258   8.460  0.0000  0.0000  0.0000
 5137OM     OM1 5137   6.003   4.750   0.905  0.0000  0.0000  0.0000
 5138OM     OM1 5138   5.765   4.734   0.995  0.0000  0.0000  0.0000
 5139OM     OM1 5139   5.845   4.944   0.834  0.0000  0.0000  0.0000
 5140OM     OM1 5140   5.805   4.712   0.737  0.0000  0.0000  0.0000
 5141OM     OM1 5141   1.999   6.790   8.220  0.0000  0.0000  0.0000
 5142OM     OM1 5142   2.164   6.987   8.265  0.0000  0.0000  0.0000
 5143OM     OM1 5143   2.155   6.775   8.424  0.0000  0.0000  0.0000
 5144OM     OM1 5144   5.571   3.081   0.805  0.0000  0.0000  0.0000
 5145OM     OM1 5145   5.620   3.277   0.978  0.0000  0.0000  0.0000
 5146OM     OM1 5146   5.516   3.061   1.069  0.0000  0.0000  0.0000
 5147OM     OM1 5147   5.377   3.213   0.903  0.0000  0.0000  0.0000
 5148OM     OM1 5148   9.261   6.374   0.305  0.0000  0.0000  0.0000
 5149OM     OM1 5149   9.463   6.401   0.139  0.0000  0.0000  0.0000
 5150OM     OM1 5150   9.217   6.431   0.053  0.0000  0.0000  0.0000
 5151OM     OM1 5151   5.887   4.499   8.571  0.0000  0.0000  0.0000
 5152OM     OM1 5152   5.995   4.696   8.684  0.0000  0.0000  0.0000
 5153OM     OM1 5153   6.017   4.462   8.793  0.0000  0.0000  0.0000
 5154OM     OM1 5154   2.371   6.737   8.893  0.0000  0.0000  0.0000
 5155OM     OM1 5155   2.523   6.635   8.714  0.0000  0.0000  0.0000
 5156OM     OM1 5156   2.593   6.598   8.963  0.0000  0.0000  0.0000
 5157OM     OM1 5157   6.042   2.036   0.516  0.0000  0.0000  0.0000
 5158OM     OM1 5158   6.262   2.066   0.659  0.0000  0.0000  0.0000
 5159OM     OM1 5159   6.194   2.245   0.489  0.0000  0.0000  0.0000
 5160OM     OM1 5160   6.052   2.223   0.702  0.0000  0.0000  0.0000
 5161OM     OM1 5161   8.541   6.941   9.560  0.0000  0.0000  0.0000
 5162OM     OM1 5162   8.628   7.186   0.044  0.0000  0.0000  0.0000
 5163OM     OM1 5163   8.575   2.503   1.277  0.0000  0.0000  0.0000
 5164OM     OM1 5164   8.359   2.561   1.127  0.0000  0.0000  0.0000
 5165OM     OM1 5165   9.131   2.759   9.601  0.0000  0.0000  0.0000
 5166OM     OM1 5166   9.264   2.626   9.428  0.0000  0.0000  0.0000
 5167OM     OM1 5167   7.065   4.698   9.489  0.0000  0.0000  0.0000
 5168OM     OM1 5168   6.984   4.939   9.402  0.0000  0.0000  0.0000
 5169OM     OM1 5169   7.429   5.497   8.749  0.0000  0.0000  0.0000
 5170OM     OM1 5170   7.230   5.669   8.695  0.0000  0.0000  0.0000
 5171OM     OM1 5171   2.536   2.032   8.466  0.0000  0.0000  0.0000
 5172OM     OM1 5172   2.221   3.141   1.359  0.0000  0.0000  0.0000
 5173OM     OM1 5173   7.660   0.417   1.460  0.0000  0.0000  0.0000
 5174OM     OM1 5174   7.457   0.479   1.307  0.0000  0.0000  0.0000
 5175OM     OM1 5175   0.007   4.530   1.184  0.0000  0.0000  0.0000
 5176OM     OM1 5176   0.159   4.502   0.961  0.0000  0.0000  0.0000
 5177OM     OM1 5177   9.582   4.674   0.975  0.0000  0.0000  0.0000
 5178OM     OM1 5178   0.192   4.694   1.141  0.0000  0.0000  0.0000
 5179OM     OM1 5179   3.157   1.078   0.195  0.0000  0.0000  0.0000
 5180OM     OM1 5180   3.349   0.911   0.112  0.0000  0.0000  0.0000
 5181OM     OM1 5181   3.302   0.908   0.355  0.0000  0.0000  0.0000
 5182OM     OM1 5182   1.426   2.533   8.410  0.0000  0.0000  0.0000
 5183OM     OM1 5183   1.480   2.766   8.315  0.0000  0.0000  0.0000
 5184OM     OM1 5184   1.273   2.734   8.483  0.0000  0.0000  0.0000
 5185OM     OM1 5185   5.786   1.548   0.136  0.0000  0.0000  0.0000
 5186OM     OM1 5186   5.549   1.513   0.244  0.0000  0.0000  0.0000
 5187OM     OM1 5187   5.635   1.756   0.207  0.0000  0.0000  0.0000
 5188OM     OM1 5188   5.376   3.994   8.308  0.0000  0.0000  0.0000
 5189OM     OM1 5189   5.164   3.863   8.339  0.0000  0.0000  0.0000
 5190OM     OM1 5190   7.923   5.835   0.205  0.0000  0.0000  0.0000
 5191OM     OM1 5191   7.954   6.265   1.050  0.0000  0.0000  0.0000
 5192OM     OM1 5192   8.048   6.016   1.012  0.0000  0.0000  0.0000
 5193OM     OM1 5193   7.931   6.142   0.826  0.0000  0.0000  0.0000
 5194OM     OM1 5194   1.603   0.602   8.731  0.0000  0.0000  0.0000
 5195OM     OM1 5195   1.771   0.514   8.553  0.0000  0.0000  0.0000
 5196OM     OM1 5196   1.850   0.662   8.752  0.0000  0.0000  0.0000
 5197OM     OM1 5197   0.594   4.171   0.622  0.0000  0.0000  0.0000
 5198OM     OM1 5198   0.788   4.021   0.529  0.0000  0.0000  0.0000
 5199OM     OM1 5199   0.619   4.137   0.372  0.0000  0.0000  0.0000
 5200OM     OM1 5200   0.992   2.983   0.543  0.0000  0.0000  0.0000
 5201OM     OM1 5201   0.995   3.183   0.708  0.0000  0.0000  0.0000
 5202OM     OM1 5202   1.220   3.101   0.594  0.0000  0.0000  0.0000
 5203OM     OM1 5203   3.083   6.579   9.521  0.0000  0.0000  0.0000
 5204OM     OM1 5204   2.962   6.432   9.356  0.0000  0.0000  0.0000
 5205OM     OM1 5205   2.962   6.691   9.310  0.0000  0.0000  0.0000
 5206OM     OM1 5206   4.791   9.286   0.564  0.0000  0.0000  0.0000
 5207OM     OM1 5207   4.759   9.078   0.714  0.0000  0.0000  0.0000
 5208OM     OM1 5208   4.604   9.449   0.626  0.0000  0.0000  0.0000
 5209OM     OM1 5209   4.833   9.483   0.743  0.0000  0.0000  0.0000
 5210OM     OM1 5210   2.023   2.119   9.103  0.0000  0.0000  0.0000
 5211OM     OM1 5211   1.958   2.233   9.336  0.0000  0.0000  0.0000
 5212OM     OM1 5212   1.876   2.326   9.098  0.0000  0.0000  0.0000
 5213OM     OM1 5213   1.792   2.092   9.195  0.0000  0.0000  0.0000
 5214OM     OM1 5214   6.423   0.479   8.634  0.0000  0.0000  0.0000
 5215OM     OM1 5215   6.479   0.263   8.775  0.0000  0.0000  0.0000
 5216OM     OM1 5216   6.483   0.259   8.510  0.0000  0.0000  0.0000
 5217OM     OM1 5217   1.907   2.997   8.490  0.0000  0.0000  0.0000
 5218OM     OM1 5218   1.978   3.228   8.391  0.0000  0.0000  0.0000
 5219OM     OM1 5219   1.807   3.215   8.577  0.0000  0.0000  0.0000
 5220OM     OM1 5220   1.733   3.141   8.342  0.0000  0.0000  0.0000
 5221OM     OM1 5221   3.263   3.959   8.397  0.0000  0.0000  0.0000
 5222OM     OM1 5222   7.575   6.176   8.647  0.0000  0.0000  0.0000
 5223OM     OM1 5223   4.010   0.085   0.237  0.0000  0.0000  0.0000
 5224OM     OM1 5224   4.131   9.576   0.424  0.0000  0.0000  0.0000
 5225OM     OM1 5225   4.201   9.431   0.215  0.0000  0.0000  0.0000
 5226OM     OM1 5226   4.379   9.578   0.319  0.0000  0.0000  0.0000
 5227OM     OM1 5227   1.558   5.783   8.568  0.0000  0.0000  0.0000
 5228OM     OM1 5228   1.354   5.882   8.709  0.0000  0.0000  0.0000
 5229OM     OM1 5229   1.316   5.761   8.481  0.0000  0.0000  0.0000
 5230OM     OM1 5230   1.445   5.992   8.481  0.0000  0.0000  0.0000
 5231OM     OM1 5231   1.281   1.817   0.768  0.0000  0.0000  0.0000
 5232OM     OM1 5232   1.279   1.527   0.499  0.0000  0.0000  0.0000
 5233OM     OM1 5233   1.367   1.576   0.742  0.0000  0.0000  0.0000
 5234OM     OM1 5234   8.629   8.707   8.245  0.0000  0.0000  0.0000
 5235OM     OM1 5235   8.726   8.501   8.368  0.0000  0.0000  0.0000
 5236OM     OM1 5236   1.748   1.763   1.028  0.0000  0.0000  0.0000
 5237OM     OM1 5237   1.545   1.870   1.139  0.0000  0.0000  0.0000
 5238OM     OM1 5238   2.928   7.538   0.374  0.0000  0.0000  0.0000
 5239OM     OM1 5239   2.830   7.333   0.517  0.0000  0.0000  0.0000
 5240OM     OM1 5240   2.843   7.435   0.150  0.0000  0.0000  0.0000
 5241OM     OM1 5241   3.094   7.488   0.186  0.0000  0.0000  0.0000
 5242OM     OM1 5242   7.763   2.139   9.578  0.0000  0.0000  0.0000
 5243OM     OM1 5243   7.595   1.964   9.470  0.0000  0.0000  0.0000
 5244OM     OM1 5244   7.543   2.075   0.095  0.0000  0.0000  0.0000
 5245OM     OM1 5245   7.524   2.211   9.472  0.0000  0.0000  0.0000
 5246OM     OM1 5246   5.462   1.548   8.615  0.0000  0.0000  0.0000
 5247OM     OM1 5247   5.419   1.783   8.730  0.0000  0.0000  0.0000
 5248OM     OM1 5248   5.586   1.620   8.841  0.0000  0.0000  0.0000
 5249OM     OM1 5249   7.197   9.521   1.173  0.0000  0.0000  0.0000
 5250OM     OM1 5250   7.312   0.142   1.110  0.0000  0.0000  0.0000
 5251OM     OM1 5251   7.055   0.133   1.174  0.0000  0.0000  0.0000
 5252OM     OM1 5252   9.173   7.148   0.476  0.0000  0.0000  0.0000
 5253OM     OM1 5253   9.186   7.316   0.286  0.0000  0.0000  0.0000
 5254OM     OM1 5254   9.383   7.466   0.378  0.0000  0.0000  0.0000
 5255OM     OM1 5255   9.155   7.448   0.507  0.0000  0.0000  0.0000
 5256OM     OM1 5256   3.162   4.315   1.298  0.0000  0.0000  0.0000
 5257OM     OM1 5257   3.134   4.569   1.373  0.0000  0.0000  0.0000
 5258OM     OM1 5258   0.089   5.690   8.425  0.0000  0.0000  0.0000
 5259OM     OM1 5259   0.104   5.646   8.677  0.0000  0.0000  0.0000
 5260OM     OM1 5260   8.888   0.591   1.087  0.0000  0.0000  0.0000
 5261OM     OM1 5261   8.890   0.793   1.261  0.0000  0.0000  0.0000
 5262OM     OM1 5262   7.023   1.314   8.730  0.0000  0.0000  0.0000
 5263OM     OM1 5263   7.215   1.162   8.634  0.0000  0.0000  0.0000
 5264OM     OM1 5264   7.054   1.069   8.817  0.0000  0.0000  0.0000
 5265OM     OM1 5265   7.420   1.616   8.706  0.0000  0.0000  0.0000
 5266OM     OM1 5266   7.151   1.555   8.708  0.0000  0.0000  0.0000
 5267OM     OM1 5267   0.168   6.515   1.110  0.0000  0.0000  0.0000
 5268OM     OM1 5268   0.096   6.615   1.342  0.0000  0.0000  0.0000
 5269OM     OM1 5269   9.527   6.484   1.209  0.0000  0.0000  0.0000
 5270OM     OM1 5270   0.134   6.351   1.306  0.0000  0.0000  0.0000
 5271OM     OM1 5271   3.066   4.119   8.897  0.0000  0.0000  0.0000
 5272OM     OM1 5272   3.207   4.336   8.969  0.0000  0.0000  0.0000
 5273OM     OM1 5273   3.272   4.184   8.768  0.0000  0.0000  0.0000
 5274OM     OM1 5274   1.691   0.646   9.188  0.0000  0.0000  0.0000
 5275OM     OM1 5275   1.497   0.506   9.327  0.0000  0.0000  0.0000
 5276OM     OM1 5276   1.460   0.582   9.088  0.0000  0.0000  0.0000
 5277OM     OM1 5277   6.058   9.071   0.631  0.0000  0.0000  0.0000
 5278OM     OM1 5278   6.166   9.155   0.417  0.0000  0.0000  0.0000
 5279OM     OM1 5279   6.310   9.039   0.610  0.0000  0.0000  0.0000
 5280OM     OM1 5280   6.215   9.285   0.645  0.0000  0.0000  0.0000
 5281OM     OM1 5281   1.100   6.352   0.448  0.0000  0.0000  0.0000
 5282OM     OM1 5282   0.973   6.567   0.523  0.0000  0.0000  0.0000
 5283OM     OM1 5283   0.958   6.467   0.264  0.0000  0.0000  0.0000
 5284OM     OM1 5284   0.841   6.360   0.463  0.0000  0.0000  0.0000
 5285OM     OM1 5285   5.323   3.871   9.215  0.0000  0.0000  0.0000
 5286OM     OM1 5286   5.344   4.091   9.355  0.0000  0.0000  0.0000
 5287OM     OM1 5287   2.738   2.199   8.437  0.0000  0.0000  0.0000
 5288OM     OM1 5288   2.774   1.955   8.385  0.0000  0.0000  0.0000
 5289OM     OM1 5289   7.056   6.943   0.257  0.0000  0.0000  0.0000
 5290OM     OM1 5290   7.101   7.087   0.476  0.0000  0.0000  0.0000
 5291OM     OM1 5291   7.190   6.840   0.458  0.0000  0.0000  0.0000
 5292OM     OM1 5292   5.757   6.493   0.203  0.0000  0.0000  0.0000
 5293OM     OM1 5293   5.752   6.759   0.252  0.0000  0.0000  0.0000
 5294OM     OM1 5294   5.968   6.611   0.298  0.0000  0.0000  0.0000
 5295OM     OM1 5295   5.918   7.169   0.873  0.0000  0.0000  0.0000
 5296OM     OM1 5296   5.850   7.290   1.090  0.0000  0.0000  0.0000
 5297OM     OM1 5297   6.082   7.153   1.085  0.0000  0.0000  0.0000
 5298OM     OM1 5298   3.813   6.259   8.458  0.0000  0.0000  0.0000
 5299OM     OM1 5299   3.728   6.309   8.221  0.0000  0.0000  0.0000
 5300OM     OM1 5300   0.233   4.655   9.128  0.0000  0.0000  0.0000
 5301OM     OM1 5301   0.386   4.541   9.307  0.0000  0.0000  0.0000
 5302OM     OM1 5302   0.148   4.456   9.295  0.0000  0.0000  0.0000
 5303OM     OM1 5303   0.424   5.248   8.870  0.0000  0.0000  0.0000
 5304OM     OM1 5304   0.618   5.418   8.912  0.0000  0.0000  0.0000
 5305OM     OM1 5305   4.327   3.063   0.997  0.0000  0.0000  0.0000
 5306OM     OM1 5306   4.572   3.012   0.894  0.0000  0.0000  0.0000
 5307OM     OM1 5307   4.487   2.887   1.107  0.0000  0.0000  0.0000
 5308OM     OM1 5308   6.359   7.730   9.189  0.0000  0.0000  0.0000
 5309OM     OM1 5309   6.259   7.978   9.154  0.0000  0.0000  0.0000
 5310OM     OM1 5310   6.125   7.757   9.090  0.0000  0.0000  0.0000
 5311OM     OM1 5311   6.177   7.828   9.346  0.0000  0.0000  0.0000
 5312OM     OM1 5312   8.120   0.170   8.739  0.0000  0.0000  0.0000
 5313OM     OM1 5313   3.985   3.543   0.829  0.0000  0.0000  0.0000
 5314OM     OM1 5314   4.180   3.702   0.741  0.0000  0.0000  0.0000
 5315OM     OM1 5315   3.949   3.801   0.796  0.0000  0.0000  0.0000
 5316OM     OM1 5316   3.967   3.662   0.587  0.0000  0.0000  0.0000
 5317OM     OM1 5317   3.144   4.748   0.745  0.0000  0.0000  0.0000
 5318OM     OM1 5318   3.011   4.663   0.951  0.0000  0.0000  0.0000
 5319OM     OM1 5319   3.044   4.512   0.733  0.0000  0.0000  0.0000
 5320OM     OM1 5320   3.241   4.551   0.892  0.0000  0.0000  0.0000
 5321OM     OM1 5321   2.865   0.247   8.497  0.0000  0.0000  0.0000
 5322OM     OM1 5322   2.676   0.416   8.456  0.0000  0.0000  0.0000
 5323OM     OM1 5323   2.888   0.490   8.603  0.0000  0.0000  0.0000
 5324OM     OM1 5324   7.320   1.027   1.341  0.0000  0.0000  0.0000
 5325OM     OM1 5325   7.485   1.153   1.193  0.0000  0.0000  0.0000
 5326OM     OM1 5326   4.292   5.212   8.855  0.0000  0.0000  0.0000
 5327OM     OM1 5327   4.243   4.986   8.999  0.0000  0.0000  0.0000
 5328OM     OM1 5328   4.388   5.178   9.092  0.0000  0.0000  0.0000
 5329OM     OM1 5329   6.400   1.854   0.708  0.0000  0.0000  0.0000
 5330OM     OM1 5330   3.993   6.741   0.534  0.0000  0.0000  0.0000
 5331OM     OM1 5331   3.887   6.819   0.759  0.0000  0.0000  0.0000
 5332OM     OM1 5332   4.029   6.989   0.606  0.0000  0.0000  0.0000
 5333OM     OM1 5333   1.809   4.801   1.272  0.0000  0.0000  0.0000
 5334OM     OM1 5334   1.682   4.856   1.066  0.0000  0.0000  0.0000
 5335OM     OM1 5335   5.434   6.837   8.911  0.0000  0.0000  0.0000
 5336OM     OM1 5336   5.427   6.782   9.263  0.0000  0.0000  0.0000
 5337OM     OM1 5337   5.239   6.811   9.085  0.0000  0.0000  0.0000
 5338OM     OM1 5338   5.331   6.607   8.973  0.0000  0.0000  0.0000
 5339OM     OM1 5339   6.524   7.576   9.040  0.0000  0.0000  0.0000
 5340OM     OM1 5340   6.545   7.572   9.300  0.0000  0.0000  0.0000
 5341OM     OM1 5341   6.607   7.785   9.163  0.0000  0.0000  0.0000
 5342OM     OM1 5342   9.572   5.931   9.376  0.0000  0.0000  0.0000
 5343OM     OM1 5343   9.392   5.774   9.486  0.0000  0.0000  0.0000
 5344OM     OM1 5344   3.786   4.421   8.256  0.0000  0.0000  0.0000
 5345OM     OM1 5345   7.165   5.601   0.001  0.0000  0.0000  0.0000
 5346OM     OM1 5346   7.010   5.667   0.212  0.0000  0.0000  0.0000
 5347OM     OM1 5347   6.934   5.484   0.040  0.0000  0.0000  0.0000
 5348OM     OM1 5348   2.594   8.355   8.425  0.0000  0.0000  0.0000
 5349OM     OM1 5349   2.447   8.237   8.599  0.0000  0.0000  0.0000
 5350OM     OM1 5350   2.509   8.495   8.623  0.0000  0.0000  0.0000
 5351OM     OM1 5351   5.954   9.515   8.429  0.0000  0.0000  0.0000
 5352OM     OM1 5352   3.637   1.240   1.421  0.0000  0.0000  0.0000
 5353OM     OM1 5353   5.818   6.109   1.157  0.0000  0.0000  0.0000
 5354OM     OM1 5354   2.307   6.619   8.568  0.0000  0.0000  0.0000
 5355OM     OM1 5355   2.504   6.756   8.484  0.0000  0.0000  0.0000
 5356OM     OM1 5356   8.636   6.311   1.373  0.0000  0.0000  0.0000
 5357OM     OM1 5357   7.218   1.774   0.521  0.0000  0.0000  0.0000
 5358OM     OM1 5358   7.438   1.891   0.630  0.0000  0.0000  0.0000
 5359OM     OM1 5359   7.441   1.640   0.543  0.0000  0.0000  0.0000
 5360OM     OM1 5360   7.315   1.708   0.754  0.0000  0.0000  0.0000
 5361OM     OM1 5361   4.421   5.360   8.373  0.0000  0.0000  0.0000
 5362OM     OM1 5362   4.604   5.205   8.479  0.0000  0.0000  0.0000
 5363OM     OM1 5363   4.409   5.304   8.631  0.0000  0.0000  0.0000
 5364OM     OM1 5364   6.158   8.610   9.498  0.0000  0.0000  0.0000
 5365OM     OM1 5365   5.945   8.763   9.456  0.0000  0.0000  0.0000
 5366OM     OM1 5366   7.643   6.672   0.998  0.0000  0.0000  0.0000
 5367OM     OM1 5367   7.505   6.615   0.775  0.0000  0.0000  0.0000
 5368OM     OM1 5368   7.750   6.570   0.790  0.0000  0.0000  0.0000
 5369OM     OM1 5369   1.516   7.252   0.559  0.0000  0.0000  0.0000
 5370OM     OM1 5370   1.383   7.234   0.793  0.0000  0.0000  0.0000
 5371OM     OM1 5371   1.289   7.133   0.567  0.0000  0.0000  0.0000
 5372OM     OM1 5372   9.428   8.581   0.389  0.0000  0.0000  0.0000
 5373OM     OM1 5373   2.311   7.603   8.322  0.0000  0.0000  0.0000
 5374OM     OM1 5374   2.058   7.507   8.336  0.0000  0.0000  0.0000
 5375OM     OM1 5375   1.003   6.765   1.018  0.0000  0.0000  0.0000
 5376OM     OM1 5376   0.987   6.687   0.769  0.0000  0.0000  0.0000
 5377OM     OM1 5377   1.054   7.079   0.639  0.0000  0.0000  0.0000
 5378OM     OM1 5378   0.863   7.158   0.802  0.0000  0.0000  0.0000
 5379OM     OM1 5379   1.165   2.666   8.810  0.0000  0.0000  0.0000
 5380OM     OM1 5380   1.281   2.466   8.895  0.0000  0.0000  0.0000
 5381OM     OM1 5381   7.381   9.120   0.961  0.0000  0.0000  0.0000
 5382OM     OM1 5382   4.252   5.463   8.767  0.0000  0.0000  0.0000
 5383OM     OM1 5383   4.265   5.684   8.903  0.0000  0.0000  0.0000
 5384OM     OM1 5384   4.339   5.686   8.659  0.0000  0.0000  0.0000
 5385OM     OM1 5385   3.378   0.685   0.461  0.0000  0.0000  0.0000
 5386OM     OM1 5386   3.366   0.897   0.613  0.0000  0.0000  0.0000
 5387OM     OM1 5387   3.148   0.790   0.524  0.0000  0.0000  0.0000
 5388OM     OM1 5388   6.427   7.370   0.902  0.0000  0.0000  0.0000
 5389OM     OM1 5389   6.330   7.526   0.688  0.0000  0.0000  0.0000
 5390OM     OM1 5390   6.564   7.547   0.767  0.0000  0.0000  0.0000
 5391OM     OM1 5391   4.463   1.931   1.227  0.0000  0.0000  0.0000
 5392OM     OM1 5392   4.593   2.157   1.252  0.0000  0.0000  0.0000
 5393OM     OM1 5393   6.119   0.926   1.167  0.0000  0.0000  0.0000
 5394OM     OM1 5394   6.247   1.108   1.292  0.0000  0.0000  0.0000
 5395OM     OM1 5395   1.482   5.168   0.800  0.0000  0.0000  0.0000
 5396OM     OM1 5396   1.513   5.076   0.573  0.0000  0.0000  0.0000
 5397OM     OM1 5397   1.267   5.111   0.657  0.0000  0.0000  0.0000
 5398OM     OM1 5398   1.402   4.927   0.771  0.0000  0.0000  0.0000
 5399OM     OM1 5399   3.402   5.364   8.742  0.0000  0.0000  0.0000
 5400OM     OM1 5400   3.666   5.434   8.677  0.0000  0.0000  0.0000
 5401OM     OM1 5401   3.474   5.602   8.685  0.0000  0.0000  0.0000
 5402OM     OM1 5402   3.552   5.470   8.907  0.0000  0.0000  0.0000
 5403OM     OM1 5403   1.420   0.837   9.088  0.0000  0.0000  0.0000
 5404OM     OM1 5404   1.227   0.679   9.166  0.0000  0.0000  0.0000
 5405OM     OM1 5405   1.286   0.685   8.921  0.0000  0.0000  0.0000
 5406OM     OM1 5406   8.787   3.303   8.695  0.0000  0.0000  0.0000
 5407OM     OM1 5407   8.985   3.448   8.672  0.0000  0.0000  0.0000
 5408OM     OM1 5408   8.924   3.380   8.910  0.0000  0.0000  0.0000
 5409OM     OM1 5409   9.408   7.125   8.611  0.0000  0.0000  0.0000
 5410OM     OM1 5410   0.057   7.152   8.538  0.0000  0.0000  0.0000
 5411OM     OM1 5411   4.094   4.842   0.712  0.0000  0.0000  0.0000
 5412OM     OM1 5412   4.215   4.741   0.506  0.0000  0.0000  0.0000
 5413OM     OM1 5413   9.276   4.427   8.366  0.0000  0.0000  0.0000
 5414OM     OM1 5414   9.116   4.224   8.389  0.0000  0.0000  0.0000
 5415OM     OM1 5415   5.085   7.210   8.394  0.0000  0.0000  0.0000
 5416OM     OM1 5416   5.091   7.486   8.410  0.0000  0.0000  0.0000
 5417OM     OM1 5417   1.317   7.224   1.060  0.0000  0.0000  0.0000
 5418OM     OM1 5418   1.322   7.020   0.911  0.0000  0.0000  0.0000
 5419OM     OM1 5419   1.138   7.201   0.855  0.0000  0.0000  0.0000
 5420OM     OM1 5420   0.803   6.102   9.251  0.0000  0.0000  0.0000
 5421OM     OM1 5421   1.057   6.106   9.270  0.0000  0.0000  0.0000
 5422OM     OM1 5422   0.926   5.888   9.342  0.0000  0.0000  0.0000
 5423OM     OM1 5423   0.916   6.102   9.491  0.0000  0.0000  0.0000
 5424OM     OM1 5424   1.182   6.184   8.501  0.0000  0.0000  0.0000
 5425OM     OM1 5425   0.953   6.221   8.597  0.0000  0.0000  0.0000
 5426OM     OM1 5426   1.146   6.395   8.659  0.0000  0.0000  0.0000
 5427OM     OM1 5427   0.481   7.452   1.289  0.0000  0.0000  0.0000
 5428OM     OM1 5428   0.587   7.230   1.348  0.0000  0.0000  0.0000
 5429OM     OM1 5429   3.319   6.538   0.549  0.0000  0.0000  0.0000
 5430OM     OM1 5430   3.484   6.428   0.379  0.0000  0.0000  0.0000
 5431OM     OM1 5431   1.907   8.216   9.384  0.0000  0.0000  0.0000
 5432OM     OM1 5432   1.720   8.054   9.406  0.0000  0.0000  0.0000
 5433OM     OM1 5433   1.954   7.952   9.422  0.0000  0.0000  0.0000
 5434OM     OM1 5434   5.133   8.541   8.619  0.0000  0.0000  0.0000
 5435OM     OM1 5435   5.222   8.510   8.860  0.0000  0.0000  0.0000
 5436OM     OM1 5436   4.977   8.598   8.823  0.0000  0.0000  0.0000
 5437OM     OM1 5437   7.093   8.481   1.171  0.0000  0.0000  0.0000
 5438OM     OM1 5438   6.860   8.505   1.036  0.0000  0.0000  0.0000
 5439OM     OM1 5439   7.084   8.462   0.898  0.0000  0.0000  0.0000
 5440OM     OM1 5440   6.594   8.790   1.192  0.0000  0.0000  0.0000
 5441OM     OM1 5441   9.011   5.229   8.428  0.0000  0.0000  0.0000
 5442OM     OM1 5442   9.093   4.978   8.452  0.0000  0.0000  0.0000
 5443OM     OM1 5443   9.254   5.183   8.523  0.0000  0.0000  0.0000
 5444OM     OM1 5444   4.295   2.373   8.367  0.0000  0.0000  0.0000
 5445OM     OM1 5445   9.366   1.784   0.442  0.0000  0.0000  0.0000
 5446OM     OM1 5446   9.418   1.543   0.503  0.0000  0.0000  0.0000
 5447OM     OM1 5447   9.358   1.292   0.471  0.0000  0.0000  0.0000
 5448OM     OM1 5448   3.048   4.735   1.203  0.0000  0.0000  0.0000
 5449OM     OM1 5449   2.895   4.532   1.146  0.0000  0.0000  0.0000
 5450OM     OM1 5450   0.595   8.043   8.709  0.0000  0.0000  0.0000
 5451OM     OM1 5451   0.320   8.132   9.044  0.0000  0.0000  0.0000
 5452OM     OM1 5452   0.529   8.251   9.157  0.0000  0.0000  0.0000
 5453OM     OM1 5453   1.854   4.930   0.265  0.0000  0.0000  0.0000
 5454OM     OM1 5454   2.078   4.880   0.137  0.0000  0.0000  0.0000
 5455OM     OM1 5455   2.081   4.953   0.386  0.0000  0.0000  0.0000
 5456OM     OM1 5456   2.739   2.037   0.461  0.0000  0.0000  0.0000
 5457OM     OM1 5457   2.804   1.768   0.421  0.0000  0.0000  0.0000
 5458OM     OM1 5458   2.987   1.938   0.487  0.0000  0.0000  0.0000
 5459OM     OM1 5459   2.792   1.883   0.649  0.0000  0.0000  0.0000
 5460OM     OM1 5460   2.241   7.825   1.367  0.0000  0.0000  0.0000
 5461OM     OM1 5461   2.171   7.748   1.128  0.0000  0.0000  0.0000
 5462OM     OM1 5462   2.279   7.585   1.285  0.0000  0.0000  0.0000
 5463OM     OM1 5463   2.428   7.783   1.191  0.0000  0.0000  0.0000
 5464OM     OM1 5464   0.989   0.987   9.223  0.0000  0.0000  0.0000
 5465OM     OM1 5465   1.036   0.620   9.335  0.0000  0.0000  0.0000
 5466OM     OM1 5466   0.986   0.752   9.111  0.0000  0.0000  0.0000
 5467OM     OM1 5467   2.176   6.094   1.349  0.0000  0.0000  0.0000
 5468OM     OM1 5468   2.154   6.333   1.242  0.0000  0.0000  0.0000
 5469OM     OM1 5469   1.975   6.144   1.188  0.0000  0.0000  0.0000
 5470OM     OM1 5470   6.692   6.400   9.205  0.0000  0.0000  0.0000
 5471OM     OM1 5471   6.520   6.267   9.063  0.0000  0.0000  0.0000
 5472OM     OM1 5472   4.487   0.839   1.349  0.0000  0.0000  0.0000
 5473OM     OM1 5473   4.546   0.601   1.250  0.0000  0.0000  0.0000
 5474OM     OM1 5474   1.257   8.831   8.671  0.0000  0.0000  0.0000
 5475OM     OM1 5475   1.151   8.977   8.880  0.0000  0.0000  0.0000
 5476OM     OM1 5476   0.415   9.052   8.807  0.0000  0.0000  0.0000
 5477OM     OM1 5477   6.698   3.937   0.512  0.0000  0.0000  0.0000
 5478OM     OM1 5478   6.888   3.948   0.331  0.0000  0.0000  0.0000
 5479OM     OM1 5479   4.131   8.517   0.282  0.0000  0.0000  0.0000
 5480OM     OM1 5480   4.353   8.383   0.295  0.0000  0.0000  0.0000
 5481OM     OM1 5481   4.135   8.283   0.184  0.0000  0.0000  0.0000
 5482OM     OM1 5482   4.277   8.452   0.058  0.0000  0.0000  0.0000
 5483OM     OM1 5483   8.385   4.453   0.636  0.0000  0.0000  0.0000
 5484OM     OM1 5484   8.237   4.656   0.594  0.0000  0.0000  0.0000
 5485OM     OM1 5485   8.440   4.609   0.441  0.0000  0.0000  0.0000
 5486OM     OM1 5486   8.408   4.754   8.400  0.0000  0.0000  0.0000
 5487OM     OM1 5487   8.570   4.923   8.505  0.0000  0.0000  0.0000
 5488OM     OM1 5488   4.732   1.084   9.019  0.0000  0.0000  0.0000
 5489OM     OM1 5489   4.900   1.274   8.995  0.0000  0.0000  0.0000
 5490OM     OM1 5490   4.771   1.187   8.780  0.0000  0.0000  0.0000
 5491OM     OM1 5491   0.605   6.568   0.532  0.0000  0.0000  0.0000
 5492OM     OM1 5492   0.658   6.322   0.633  0.0000  0.0000  0.0000
 5493OM     OM1 5493   0.444   6.445   0.702  0.0000  0.0000  0.0000
 5494OM     OM1 5494   0.140   9.295   0.335  0.0000  0.0000  0.0000
 5495OM     OM1 5495   0.252   9.239   0.095  0.0000  0.0000  0.0000
 5496OM     OM1 5496   7.040   4.447   1.078  0.0000  0.0000  0.0000
 5497OM     OM1 5497   6.824   4.302   1.132  0.0000  0.0000  0.0000
 5498OM     OM1 5498   7.054   4.260   1.246  0.0000  0.0000  0.0000
 5499OM     OM1 5499   0.111   6.513   9.318  0.0000  0.0000  0.0000
 5500OM     OM1 5500   0.176   6.760   9.283  0.0000  0.0000  0.0000
 5501OM     OM1 5501   2.123   0.324   8.261  0.0000  0.0000  0.0000
 5502OM     OM1 5502   2.169   0.493   8.466  0.0000  0.0000  0.0000
 5503OM     OM1 5503   1.936   0.471   8.355  0.0000  0.0000  0.0000
 5504OM     OM1 5504   1.542   0.016   1.249  0.0000  0.0000  0.0000
 5505OM     OM1 5505   1.438   0.166   1.059  0.0000  0.0000  0.0000
 5506OM     OM1 5506   1.627   0.258   1.208  0.0000  0.0000  0.0000
 5507OM     OM1 5507   6.966   1.719   0.452  0.0000  0.0000  0.0000
 5508OM     OM1 5508   7.133   1.843   0.293  0.0000  0.0000  0.0000
 5509OM     OM1 5509   7.164   1.580   0.358  0.0000  0.0000  0.0000
 5510OM     OM1 5510   4.721   0.913   0.262  0.0000  0.0000  0.0000
 5511OM     OM1 5511   4.887   0.720   0.195  0.0000  0.0000  0.0000
 5512OM     OM1 5512   5.773   4.164   0.614  0.0000  0.0000  0.0000
 5513OM     OM1 5513   5.914   4.382   0.636  0.0000  0.0000  0.0000
 5514OM     OM1 5514   5.757   4.351   0.435  0.0000  0.0000  0.0000
 5515OM     OM1 5515   5.980   4.205   0.464  0.0000  0.0000  0.0000
 5516OM     OM1 5516   2.409   0.563   1.127  0.0000  0.0000  0.0000
 5517OM     OM1 5517   2.832   2.276   0.467  0.0000  0.0000  0.0000
 5518OM     OM1 5518   2.862   2.483   0.318  0.0000  0.0000  0.0000
 5519OM     OM1 5519   3.050   2.431   0.505  0.0000  0.0000  0.0000
 5520OM     OM1 5520   2.758   6.405   9.046  0.0000  0.0000  0.0000
 5521OM     OM1 5521   2.786   6.651   9.128  0.0000  0.0000  0.0000
 5522OM     OM1 5522   2.837   6.573   8.878  0.0000  0.0000  0.0000
 5523OM     OM1 5523   8.941   6.283   8.898  0.0000  0.0000  0.0000
 5524OM     OM1 5524   8.869   6.534   8.938  0.0000  0.0000  0.0000
 5525OM     OM1 5525   7.209   8.522   0.668  0.0000  0.0000  0.0000
 5526OM     OM1 5526   2.153   3.330   1.200  0.0000  0.0000  0.0000
 5527OM     OM1 5527   2.381   3.355   1.336  0.0000  0.0000  0.0000
 5528OM     OM1 5528   5.268   4.233   0.485  0.0000  0.0000  0.0000
 5529OM     OM1 5529   5.254   4.462   0.368  0.0000  0.0000  0.0000
 5530OM     OM1 5530   5.067   4.265   0.324  0.0000  0.0000  0.0000
 5531OM     OM1 5531   5.316   4.254   0.234  0.0000  0.0000  0.0000
 5532OM     OM1 5532   5.936   1.379   0.729  0.0000  0.0000  0.0000
 5533OM     OM1 5533   5.936   1.639   0.754  0.0000  0.0000  0.0000
 5534OM     OM1 5534   5.712   1.516   0.736  0.0000  0.0000  0.0000
 5535OM     OM1 5535   7.656   4.608   0.554  0.0000  0.0000  0.0000
 5536OM     OM1 5536   7.520   4.776   0.706  0.0000  0.0000  0.0000
 5537OM     OM1 5537   2.279   8.318   0.562  0.0000  0.0000  0.0000
 5538OM     OM1 5538   2.261   8.546   0.677  0.0000  0.0000  0.0000
 5539OM     OM1 5539   2.123   8.507   0.462  0.0000  0.0000  0.0000
 5540OM     OM1 5540   3.251   6.435   1.392  0.0000  0.0000  0.0000
 5541OM     OM1 5541   3.249   6.229   1.234  0.0000  0.0000  0.0000
 5542OM     OM1 5542   5.988   0.533   8.322  0.0000  0.0000  0.0000
 5543OM     OM1 5543   5.736   0.483   8.393  0.0000  0.0000  0.0000
 5544OM     OM1 5544   8.591   8.402   8.904  0.0000  0.0000  0.0000
 5545OM     OM1 5545   8.279   8.037   8.974  0.0000  0.0000  0.0000
 5546OM     OM1 5546   8.517   8.241   8.710  0.0000  0.0000  0.0000
 5547OM     OM1 5547   8.508   8.151   8.953  0.0000  0.0000  0.0000
 5548OM     OM1 5548   3.830   7.000   9.332  0.0000  0.0000  0.0000
 5549OM     OM1 5549   3.575   6.985   9.273  0.0000  0.0000  0.0000
 5550OM     OM1 5550   3.811   6.943   8.824  0.0000  0.0000  0.0000
 5551OM     OM1 5551   9.181   9.362   8.379  0.0000  0.0000  0.0000
 5552OM     OM1 5552   9.443   9.352   8.387  0.0000  0.0000  0.0000
 5553OM     OM1 5553   0.490   9.276   8.720  0.0000  0.0000  0.0000
 5554OM     OM1 5554   0.732   9.191   8.806  0.0000  0.0000  0.0000
 5555OM     OM1 5555   0.717   9.413   8.694  0.0000  0.0000  0.0000
 5556OM     OM1 5556   0.599   9.380   8.929  0.0000  0.0000  0.0000
 5557OM     OM1 5557   3.692   0.423   0.030  0.0000  0.0000  0.0000
 5558OM     OM1 5558   3.800   0.636   9.534  0.0000  0.0000  0.0000
 5559OM     OM1 5559   3.599   0.661   0.084  0.0000  0.0000  0.0000
 5560OM     OM1 5560   4.730   2.434   8.630  0.0000  0.0000  0.0000
 5561OM     OM1 5561   4.696   2.549   8.397  0.0000  0.0000  0.0000
 5562OM     OM1 5562   6.978   7.461   8.992  0.0000  0.0000  0.0000
 5563OM     OM1 5563   7.074   7.556   9.225  0.0000  0.0000  0.0000
 5564OM     OM1 5564   6.969   7.327   9.224  0.0000  0.0000  0.0000
 5565OM     OM1 5565   4.596   7.583   8.629  0.0000  0.0000  0.0000
 5566OM     OM1 5566   4.562   7.401   8.440  0.0000  0.0000  0.0000
 5567OM     OM1 5567   4.693   7.341   8.652  0.0000  0.0000  0.0000
 5568OM     OM1 5568   4.278   0.661   9.112  0.0000  0.0000  0.0000
 5569OM     OM1 5569   4.389   0.554   9.321  0.0000  0.0000  0.0000
 5570OM     OM1 5570   4.362   0.414   9.098  0.0000  0.0000  0.0000
 5571OM     OM1 5571   4.535   4.419   0.282  0.0000  0.0000  0.0000
 5572OM     OM1 5572   0.493   8.018   8.358  0.0000  0.0000  0.0000
 5573OM     OM1 5573   0.355   8.221   8.463  0.0000  0.0000  0.0000
 5574OM     OM1 5574   9.090   0.866   8.952  0.0000  0.0000  0.0000
 5575OM     OM1 5575   9.161   0.622   8.845  0.0000  0.0000  0.0000
 5576OM     OM1 5576   9.200   0.683   9.090  0.0000  0.0000  0.0000
 5577OM     OM1 5577   8.562   6.942   8.654  0.0000  0.0000  0.0000
 5578OM     OM1 5578   8.622   6.947   8.396  0.0000  0.0000  0.0000
 5579OM     OM1 5579   1.433   0.401   1.296  0.0000  0.0000  0.0000
 5580OM     OM1 5580   1.906   0.597   1.235  0.0000  0.0000  0.0000
 5581OM     OM1 5581   1.677   0.494   1.316  0.0000  0.0000  0.0000
 5582OM     OM1 5582   1.418   5.878   1.087  0.0000  0.0000  0.0000
 5583OM     OM1 5583   1.210   5.773   0.968  0.0000  0.0000  0.0000
 5584OM     OM1 5584   1.324   5.974   0.857  0.0000  0.0000  0.0000
 5585OM     OM1 5585   2.369   5.296   8.787  0.0000  0.0000  0.0000
 5586OM     OM1 5586   2.559   5.270   8.963  0.0000  0.0000  0.0000
 5587OM     OM1 5587   2.475   4.427   9.343  0.0000  0.0000  0.0000
 5588OM     OM1 5588   2.466   4.199   9.234  0.0000  0.0000  0.0000
 5589OM     OM1 5589   2.517   4.183   9.478  0.0000  0.0000  0.0000
 5590OM     OM1 5590   2.695   4.295   9.334  0.0000  0.0000  0.0000
 5591OM     OM1 5591   4.381   1.148   8.830  0.0000  0.0000  0.0000
 5592OM     OM1 5592   4.346   1.155   8.579  0.0000  0.0000  0.0000
 5593OM     OM1 5593   4.573   1.069   8.664  0.0000  0.0000  0.0000
 5594OM     OM1 5594   0.630   4.633   0.404  0.0000  0.0000  0.0000
 5595OM     OM1 5595   0.607   4.812   0.598  0.0000  0.0000  0.0000
 5596OM     OM1 5596   0.846   4.715   0.533  0.0000  0.0000  0.0000
 5597OM     OM1 5597   0.683   4.575   0.664  0.0000  0.0000  0.0000
 5598OM     OM1 5598   3.712   0.335   9.120  0.0000  0.0000  0.0000
 5599OM     OM1 5599   3.941   0.392   8.999  0.0000  0.0000  0.0000
 5600OM     OM1 5600   0.846   4.076   8.962  0.0000  0.0000  0.0000
 5601OM     OM1 5601   0.579   4.082   8.970  0.0000  0.0000  0.0000
 5602OM     OM1 5602   8.754   5.826   8.738  0.0000  0.0000  0.0000
 5603OM     OM1 5603   8.880   6.039   8.825  0.0000  0.0000  0.0000
 5604OM     OM1 5604   8.659   6.066   8.699  0.0000  0.0000  0.0000
 5605OM     OM1 5605   2.141   9.279   9.197  0.0000  0.0000  0.0000
 5606OM     OM1 5606   1.963   9.343   8.999  0.0000  0.0000  0.0000
 5607OM     OM1 5607   1.960   9.463   9.220  0.0000  0.0000  0.0000
 5608OM     OM1 5608   2.161   9.500   9.059  0.0000  0.0000  0.0000
 5609OM     OM1 5609   4.701   8.336   0.810  0.0000  0.0000  0.0000
 5610OM     OM1 5610   4.533   8.469   0.969  0.0000  0.0000  0.0000
 5611OM     OM1 5611   4.646   8.234   1.056  0.0000  0.0000  0.0000
 5612OM     OM1 5612   7.237   0.156   9.299  0.0000  0.0000  0.0000
 5613OM     OM1 5613   7.435   0.293   9.438  0.0000  0.0000  0.0000
 5614OM     OM1 5614   7.272   0.400   9.263  0.0000  0.0000  0.0000
 5615OM     OM1 5615   4.385   0.304   8.861  0.0000  0.0000  0.0000
 5616OM     OM1 5616   4.558   0.482   8.952  0.0000  0.0000  0.0000
 5617OM     OM1 5617   4.533   0.224   9.055  0.0000  0.0000  0.0000
 5618OM     OM1 5618   7.994   6.883   8.755  0.0000  0.0000  0.0000
 5619OM     OM1 5619   8.044   6.980   9.000  0.0000  0.0000  0.0000
 5620OM     OM1 5620   8.098   7.110   8.776  0.0000  0.0000  0.0000
 5621OM     OM1 5621   7.855   7.090   8.862  0.0000  0.0000  0.0000
 5622OM     OM1 5622   7.866   7.018   9.489  0.0000  0.0000  0.0000
 5623OM     OM1 5623   7.835   7.219   9.316  0.0000  0.0000  0.0000
 5624OM     OM1 5624   8.050   7.199   9.461  0.0000  0.0000  0.0000
 5625OM     OM1 5625   8.005   7.036   9.262  0.0000  0.0000  0.0000
 5626OM     OM1 5626   8.601   5.088   9.178  0.0000  0.0000  0.0000
 5627OM     OM1 5627   6.599   1.878   1.198  0.0000  0.0000  0.0000
 5628OM     OM1 5628   6.788   1.797   1.026  0.0000  0.0000  0.0000
 5629OM     OM1 5629   3.784   2.851   9.397  0.0000  0.0000  0.0000
 5630OM     OM1 5630   3.544   3.060   1.107  0.0000  0.0000  0.0000
 5631OM     OM1 5631   0.205   2.590   9.209  0.0000  0.0000  0.0000
 5632OM     OM1 5632   0.302   2.225   8.896  0.0000  0.0000  0.0000
 5633OM     OM1 5633   0.217   2.345   9.106  0.0000  0.0000  0.0000
 5634OM     OM1 5634   0.340   2.411   9.336  0.0000  0.0000  0.0000
 5635OM     OM1 5635   7.426   0.900   8.767  0.0000  0.0000  0.0000
 5636OM     OM1 5636   7.379   0.998   8.530  0.0000  0.0000  0.0000
 5637OM     OM1 5637   7.451   0.750   8.571  0.0000  0.0000  0.0000
 5638OM     OM1 5638   7.206   0.834   8.628  0.0000  0.0000  0.0000
 5639OM     OM1 5639   5.274   2.897   0.219  0.0000  0.0000  0.0000
 5640OM     OM1 5640   5.246   3.105   0.400  0.0000  0.0000  0.0000
 5641OM     OM1 5641   5.058   3.045   0.231  0.0000  0.0000  0.0000
 5642OM     OM1 5642   7.664   7.235   0.658  0.0000  0.0000  0.0000
 5643OM     OM1 5643   7.847   7.099   0.799  0.0000  0.0000  0.0000
 5644OM     OM1 5644   7.672   7.237   0.923  0.0000  0.0000  0.0000
 5645OM     OM1 5645   7.843   7.367   0.776  0.0000  0.0000  0.0000
 5646OM     OM1 5646   1.781   9.112   8.654  0.0000  0.0000  0.0000
 5647OM     OM1 5647   1.807   9.078   8.916  0.0000  0.0000  0.0000
 5648OM     OM1 5648   1.775   9.311   8.814  0.0000  0.0000  0.0000
 5649OM     OM1 5649   3.910   4.199   9.261  0.0000  0.0000  0.0000
 5650OM     OM1 5650   3.770   4.415   9.264  0.0000  0.0000  0.0000
 5651OM     OM1 5651   3.842   4.296   9.492  0.0000  0.0000  0.0000
 5652OM     OM1 5652   4.028   4.412   9.356  0.0000  0.0000  0.0000
 5653OM     OM1 5653   8.988   9.119   9.314  0.0000  0.0000  0.0000
 5654OM     OM1 5654   9.132   9.311   9.240  0.0000  0.0000  0.0000
 5655OM     OM1 5655   9.311   9.128   9.203  0.0000  0.0000  0.0000
 5656OM     OM1 5656   2.137   1.056   9.341  0.0000  0.0000  0.0000
 5657OM     OM1 5657   2.034   1.188   9.130  0.0000  0.0000  0.0000
 5658OM     OM1 5658   2.194   1.305   9.295  0.0000  0.0000  0.0000
 5659OM     OM1 5659   2.288   1.099   9.146  0.0000  0.0000  0.0000
 5660OM     OM1 5660   1.109   5.369   1.025  0.0000  0.0000  0.0000
 5661OM     OM1 5661   1.612   6.026   9.469  0.0000  0.0000  0.0000
 5662OM     OM1 5662   1.647   6.260   9.394  0.0000  0.0000  0.0000
 5663OM     OM1 5663   1.457   6.149   9.282  0.0000  0.0000  0.0000
 5664OM     OM1 5664   0.311   6.674   8.667  0.0000  0.0000  0.0000
 5665OM     OM1 5665   0.311   6.423   8.761  0.0000  0.0000  0.0000
 5666OM     OM1 5666   0.311   6.468   8.505  0.0000  0.0000  0.0000
 5667OM     OM1 5667   2.275   7.811   0.506  0.0000  0.0000  0.0000
 5668OM     OM1 5668   2.254   8.068   0.493  0.0000  0.0000  0.0000
 5669OM     OM1 5669   2.176   7.950   0.703  0.0000  0.0000  0.0000
 5670OM     OM1 5670   4.243   0.163   8.657  0.0000  0.0000  0.0000
 5671OM     OM1 5671   4.240   0.028   8.432  0.0000  0.0000  0.0000
 5672OM     OM1 5672   4.021   0.082   8.549  0.0000  0.0000  0.0000
 5673OM     OM1 5673   4.176   0.273   8.428  0.0000  0.0000  0.0000
 5674OM     OM1 5674   0.154   2.726   9.413  0.0000  0.0000  0.0000
 5675OM     OM1 5675   9.512   2.713   9.475  0.0000  0.0000  0.0000
 5676OM     OM1 5676   0.070   2.865   0.010  0.0000  0.0000  0.0000
 5677OM     OM1 5677   0.083   2.604   0.031  0.0000  0.0000  0.0000
 5678OM     OM1 5678   1.991   1.011   0.209  0.0000  0.0000  0.0000
 5679OM     OM1 5679   2.082   0.966   9.575  0.0000  0.0000  0.0000
 5680OM     OM1 5680   2.058   1.212   0.058  0.0000  0.0000  0.0000
 5681OM     OM1 5681   1.854   0.249   0.149  0.0000  0.0000  0.0000
 5682OM     OM1 5682   1.972   0.031   0.222  0.0000  0.0000  0.0000
 5683OM     OM1 5683   2.037   5.565   9.533  0.0000  0.0000  0.0000
 5684OM     OM1 5684   2.166   5.346   9.475  0.0000  0.0000  0.0000
 5685OM     OM1 5685   2.243   5.498   0.072  0.0000  0.0000  0.0000
 5686OM     OM1 5686   7.330   1.241   0.661  0.0000  0.0000  0.0000
 5687OM     OM1 5687   7.579   1.156   0.663  0.0000  0.0000  0.0000
 5688OM     OM1 5688   7.469   1.283   0.875  0.0000  0.0000  0.0000
 5689OM     OM1 5689   2.786   6.872   9.264  0.0000  0.0000  0.0000
 5690OM     OM1 5690   2.962   6.829   9.074  0.0000  0.0000  0.0000
 5691OM     OM1 5691   1.526   5.300   0.425  0.0000  0.0000  0.0000
 5692OM     OM1 5692   1.414   5.091   0.347  0.0000  0.0000  0.0000
 5693OM     OM1 5693   1.683   5.086   0.386  0.0000  0.0000  0.0000
 5694OM     OM1 5694   4.047   8.974   1.063  0.0000  0.0000  0.0000
 5695OM     OM1 5695   4.128   8.766   0.917  0.0000  0.0000  0.0000
 5696OM     OM1 5696   1.250   2.272   9.588  0.0000  0.0000  0.0000
 5697OM     OM1 5697   1.370   2.455   0.128  0.0000  0.0000  0.0000
 5698OM     OM1 5698   1.423   2.201   0.149  0.0000  0.0000  0.0000
 5699OM     OM1 5699   1.189   2.291   0.239  0.0000  0.0000  0.0000
 5700OM     OM1 5700   3.166   4.986   0.840  0.0000  0.0000  0.0000
 5701OM     OM1 5701   2.954   4.916   0.710  0.0000  0.0000  0.0000
 5702OM     OM1 5702   3.179   4.942   0.571  0.0000  0.0000  0.0000
 5703OM     OM1 5703   6.385   0.553   8.875  0.0000  0.0000  0.0000
 5704OM     OM1 5704   6.532   0.705   8.722  0.0000  0.0000  0.0000
 5705OM     OM1 5705   6.274   0.695   8.690  0.0000  0.0000  0.0000
 5706OM     OM1 5706   5.431   0.363   0.926  0.0000  0.0000  0.0000
 5707OM     OM1 5707   5.717   0.615   0.658  0.0000  0.0000  0.0000
 5708OM     OM1 5708   5.664   0.437   0.846  0.0000  0.0000  0.0000
 5709OM     OM1 5709   1.695   5.722   1.199  0.0000  0.0000  0.0000
 5710OM     OM1 5710   1.841   5.522   1.127  0.0000  0.0000  0.0000
 5711OM     OM1 5711   3.778   3.740   8.867  0.0000  0.0000  0.0000
 5712OM     OM1 5712   3.723   3.758   9.120  0.0000  0.0000  0.0000
 5713OM     OM1 5713   7.721   5.377   8.566  0.0000  0.0000  0.0000
 5714OM     OM1 5714   7.768   5.599   8.426  0.0000  0.0000  0.0000
 5715OM     OM1 5715   1.916   7.987   8.431  0.0000  0.0000  0.0000
 5716OM     OM1 5716   1.782   8.201   8.485  0.0000  0.0000  0.0000
 5717OM     OM1 5717   2.022   8.205   8.370  0.0000  0.0000  0.0000
 5718OM     OM1 5718   2.195   6.262   0.238  0.0000  0.0000  0.0000
 5719OM     OM1 5719   2.234   6.477   0.381  0.0000  0.0000  0.0000
 5720OM     OM1 5720   2.169   6.247   0.493  0.0000  0.0000  0.0000
 5721OM     OM1 5721   2.402   6.274   0.390  0.0000  0.0000  0.0000
 5722OM     OM1 5722   1.755   8.687   0.449  0.0000  0.0000  0.0000
 5723OM     OM1 5723   1.860   8.920   0.494  0.0000  0.0000  0.0000
 5724OM     OM1 5724   2.010   8.731   0.389  0.0000  0.0000  0.0000
 5725OM     OM1 5725   7.877   6.685   1.098  0.0000  0.0000  0.0000
 5726OM     OM1 5726   8.025   6.479   1.181  0.0000  0.0000  0.0000
 5727OM     OM1 5727   7.774   6.497   1.246  0.0000  0.0000  0.0000
 5728OM     OM1 5728   0.963   2.262   8.728  0.0000  0.0000  0.0000
 5729OM     OM1 5729   0.917   2.180   8.978  0.0000  0.0000  0.0000
 5730OM     OM1 5730   0.763   2.354   8.874  0.0000  0.0000  0.0000
 5731OM     OM1 5731   9.504   6.371   9.270  0.0000  0.0000  0.0000
 5732OM     OM1 5732   9.517   6.269   9.025  0.0000  0.0000  0.0000
 5733OM     OM1 5733   3.040   6.983   0.683  0.0000  0.0000  0.0000
 5734OM     OM1 5734   3.176   7.179   0.789  0.0000  0.0000  0.0000
 5735OM     OM1 5735   5.419   2.090   8.325  0.0000  0.0000  0.0000
 5736OM     OM1 5736   5.385   1.828   8.270  0.0000  0.0000  0.0000
 5737OM     OM1 5737   0.648   8.639   8.320  0.0000  0.0000  0.0000
 5738OM     OM1 5738   2.336   4.619   0.549  0.0000  0.0000  0.0000
 5739OM     OM1 5739   2.171   4.470   0.694  0.0000  0.0000  0.0000
 5740OM     OM1 5740   2.341   4.358   0.529  0.0000  0.0000  0.0000
 5741OM     OM1 5741   2.136   4.500   0.437  0.0000  0.0000  0.0000
 5742OM     OM1 5742   4.966   2.477   0.619  0.0000  0.0000  0.0000
 5743OM     OM1 5743   4.866   2.410   0.391  0.0000  0.0000  0.0000
 5744OM     OM1 5744   5.241   2.481   0.627  0.0000  0.0000  0.0000
 5745OM     OM1 5745   5.575   1.625   0.000  0.0000  0.0000  0.0000
 5746OM     OM1 5746   5.420   1.570   9.396  0.0000  0.0000  0.0000
 5747OM     OM1 5747   4.542   5.798   8.527  0.0000  0.0000  0.0000
 5748OM     OM1 5748   4.511   5.827   8.781  0.0000  0.0000  0.0000
 5749OM     OM1 5749   8.570   3.069   0.042  0.0000  0.0000  0.0000
 5750OM     OM1 5750   8.478   3.115   9.409  0.0000  0.0000  0.0000
 5751OM     OM1 5751   6.739   3.460   8.512  0.0000  0.0000  0.0000
 5752OM     OM1 5752   6.958   3.411   8.369  0.0000  0.0000  0.0000
 5753OM     OM1 5753   8.135   8.049   0.296  0.0000  0.0000  0.0000
 5754OM     OM1 5754   8.075   8.252   0.137  0.0000  0.0000  0.0000
 5755OM     OM1 5755   7.890   8.084   0.183  0.0000  0.0000  0.0000
 5756OM     OM1 5756   9.069   3.319   9.586  0.0000  0.0000  0.0000
 5757OM     OM1 5757   9.101   3.484   9.385  0.0000  0.0000  0.0000
 5758OM     OM1 5758   9.099   3.562   0.027  0.0000  0.0000  0.0000
 5759OM     OM1 5759   6.649   7.903   8.508  0.0000  0.0000  0.0000
 5760OM     OM1 5760   6.879   7.803   8.521  0.0000  0.0000  0.0000
 5761OM     OM1 5761   5.129   0.673   8.560  0.0000  0.0000  0.0000
 5762OM     OM1 5762   5.210   0.557   8.340  0.0000  0.0000  0.0000
 5763OM     OM1 5763   4.952   0.648   8.365  0.0000  0.0000  0.0000
 5764OM     OM1 5764   5.038   0.556   8.758  0.0000  0.0000  0.0000
 5765OM     OM1 5765   6.769   7.572   0.905  0.0000  0.0000  0.0000
 5766OM     OM1 5766   6.994   7.461   0.850  0.0000  0.0000  0.0000
 5767OM     OM1 5767   8.163   3.033   9.517  0.0000  0.0000  0.0000
 5768OM     OM1 5768   8.019   3.100   9.318  0.0000  0.0000  0.0000
 5769OM     OM1 5769   8.098   3.292   9.472  0.0000  0.0000  0.0000
 5770OM     OM1 5770   8.263   3.167   9.306  0.0000  0.0000  0.0000
 5771OM     OM1 5771   2.936   9.473   8.978  0.0000  0.0000  0.0000
 5772OM     OM1 5772   2.432   7.500   8.518  0.0000  0.0000  0.0000
 5773OM     OM1 5773   2.285   7.373   8.687  0.0000  0.0000  0.0000
 5774OM     OM1 5774   8.156   4.714   8.416  0.0000  0.0000  0.0000
 5775OM     OM1 5775   8.135   4.973   8.428  0.0000  0.0000  0.0000
 5776OM     OM1 5776   7.921   4.815   8.418  0.0000  0.0000  0.0000
 5777OM     OM1 5777   8.104   0.512   0.289  0.0000  0.0000  0.0000
 5778OM     OM1 5778   8.021   0.633   0.064  0.0000  0.0000  0.0000
 5779OM     OM1 5779   8.243   0.487   0.070  0.0000  0.0000  0.0000
 5780OM     OM1 5780   0.213   2.564   0.251  0.0000  0.0000  0.0000
 5781OM     OM1 5781   0.041   2.387   0.169  0.0000  0.0000  0.0000
 5782OM     OM1 5782   9.562   2.626   0.253  0.0000  0.0000  0.0000
 5783OM     OM1 5783   3.565   8.108   0.093  0.0000  0.0000  0.0000
 5784OM     OM1 5784   3.719   8.068   0.296  0.0000  0.0000  0.0000
 5785OM     OM1 5785   3.608   8.304   0.265  0.0000  0.0000  0.0000
 5786OM     OM1 5786   6.262   8.137   8.618  0.0000  0.0000  0.0000
 5787OM     OM1 5787   4.352   3.229   0.740  0.0000  0.0000  0.0000
 5788OM     OM1 5788   4.595   3.280   0.649  0.0000  0.0000  0.0000
 5789OM     OM1 5789   4.387   3.418   0.570  0.0000  0.0000  0.0000
 5790OM     OM1 5790   4.477   3.451   0.814  0.0000  0.0000  0.0000
 5791OM     OM1 5791   4.008   5.668   0.763  0.0000  0.0000  0.0000
 5792OM     OM1 5792   3.920   5.845   0.935  0.0000  0.0000  0.0000
 5793OM     OM1 5793   3.710   5.937   0.826  0.0000  0.0000  0.0000
 5794OM     OM1 5794   7.012   2.643   0.993  0.0000  0.0000  0.0000
 5795OM     OM1 5795   6.887   2.566   0.619  0.0000  0.0000  0.0000
 5796OM     OM1 5796   7.083   2.714   0.528  0.0000  0.0000  0.0000
 5797OM     OM1 5797   6.982   2.757   0.767  0.0000  0.0000  0.0000
 5798OM     OM1 5798   0.312   5.027   8.779  0.0000  0.0000  0.0000
 5799OM     OM1 5799   0.245   4.800   8.899  0.0000  0.0000  0.0000
 5800OM     OM1 5800   0.300   4.799   8.644  0.0000  0.0000  0.0000
 5801OM     OM1 5801   0.490   4.842   8.818  0.0000  0.0000  0.0000
 5802OM     OM1 5802   8.480   0.980   0.535  0.0000  0.0000  0.0000
 5803OM     OM1 5803   7.324   0.800   9.171  0.0000  0.0000  0.0000
 5804OM     OM1 5804   7.219   0.938   8.980  0.0000  0.0000  0.0000
 5805OM     OM1 5805   7.485   0.919   9.009  0.0000  0.0000  0.0000
 5806OM     OM1 5806   4.753   3.131   0.485  0.0000  0.0000  0.0000
 5807OM     OM1 5807   4.686   2.875   0.446  0.0000  0.0000  0.0000
 5808OM     OM1 5808   4.563   3.079   0.332  0.0000  0.0000  0.0000
 5809OM     OM1 5809   4.806   3.009   0.254  0.0000  0.0000  0.0000
 5810OM     OM1 5810   9.348   8.595   8.642  0.0000  0.0000  0.0000
 5811OM     OM1 5811   9.584   8.483   8.638  0.0000  0.0000  0.0000
 5812OM     OM1 5812   4.040   4.140   0.493  0.0000  0.0000  0.0000
 5813OM     OM1 5813   3.925   4.055   0.719  0.0000  0.0000  0.0000
 5814OM     OM1 5814   3.802   4.220   0.560  0.0000  0.0000  0.0000
 5815OM     OM1 5815   7.056   8.006   8.573  0.0000  0.0000  0.0000
 5816OM     OM1 5816   7.094   8.271   8.640  0.0000  0.0000  0.0000
 5817OM     OM1 5817   7.024   8.103   8.811  0.0000  0.0000  0.0000
 5818OM     OM1 5818   5.358   7.256   0.330  0.0000  0.0000  0.0000
 5819OM     OM1 5819   5.207   7.436   0.225  0.0000  0.0000  0.0000
 5820OM     OM1 5820   3.748   0.562   9.017  0.0000  0.0000  0.0000
 5821OM     OM1 5821   4.126   0.248   8.871  0.0000  0.0000  0.0000
 5822OM     OM1 5822   1.303   4.094   0.792  0.0000  0.0000  0.0000
 5823OM     OM1 5823   1.285   4.277   0.607  0.0000  0.0000  0.0000
 5824OM     OM1 5824   6.571   1.005   9.081  0.0000  0.0000  0.0000
 5825OM     OM1 5825   6.796   1.027   9.212  0.0000  0.0000  0.0000
 5826OM     OM1 5826   7.015   1.051   9.083  0.0000  0.0000  0.0000
 5827OM     OM1 5827   6.934   1.255   9.227  0.0000  0.0000  0.0000
 5828OM     OM1 5828   0.546   5.689   1.124  0.0000  0.0000  0.0000
 5829OM     OM1 5829   0.372   5.643   1.304  0.0000  0.0000  0.0000
 5830OM     OM1 5830   9.018   4.700   1.326  0.0000  0.0000  0.0000
 5831OM     OM1 5831   8.001   0.508   0.529  0.0000  0.0000  0.0000
 5832OM     OM1 5832   3.900   7.541   1.103  0.0000  0.0000  0.0000
 5833OM     OM1 5833   3.741   7.628   1.291  0.0000  0.0000  0.0000
 5834OM     OM1 5834   3.981   7.711   1.291  0.0000  0.0000  0.0000
 5835OM     OM1 5835   5.485   5.666   9.325  0.0000  0.0000  0.0000
 5836OM     OM1 5836   5.493   5.916   9.262  0.0000  0.0000  0.0000
 5837OM     OM1 5837   5.477   6.055   9.034  0.0000  0.0000  0.0000
 5838OM     OM1 5838   5.681   6.083   9.182  0.0000  0.0000  0.0000
 5839OM     OM1 5839   1.336   3.468   1.286  0.0000  0.0000  0.0000
 5840OM     OM1 5840   1.457   3.698   1.283  0.0000  0.0000  0.0000
 5841OM     OM1 5841   1.215   3.676   1.185  0.0000  0.0000  0.0000
 5842OM     OM1 5842   1.396   3.547   1.065  0.0000  0.0000  0.0000
 5843OM     OM1 5843   5.619   0.404   1.106  0.0000  0.0000  0.0000
 5844OM     OM1 5844   5.857   0.599   0.883  0.0000  0.0000  0.0000
 5845OM     OM1 5845   6.172   3.862   8.296  0.0000  0.0000  0.0000
 5846OM     OM1 5846   6.411   3.734   8.257  0.0000  0.0000  0.0000
 5847OM     OM1 5847   7.674   0.609   8.576  0.0000  0.0000  0.0000
 5848OM     OM1 5848   7.642   0.806   8.400  0.0000  0.0000  0.0000
 5849OM     OM1 5849   7.509   0.597   8.377  0.0000  0.0000  0.0000
 5850OM     OM1 5850   6.489   9.208   0.324  0.0000  0.0000  0.0000
 5851OM     OM1 5851   6.554   9.449   0.247  0.0000  0.0000  0.0000
 5852OM     OM1 5852   6.342   9.419   0.390  0.0000  0.0000  0.0000
 5853OM     OM1 5853   7.092   5.892   0.294  0.0000  0.0000  0.0000
 5854OM     OM1 5854   8.839   3.426   1.159  0.0000  0.0000  0.0000
 5855OM     OM1 5855   9.007   3.484   0.973  0.0000  0.0000  0.0000
 5856OM     OM1 5856   8.974   3.655   1.177  0.0000  0.0000  0.0000
 5857OM     OM1 5857   8.789   3.632   0.998  0.0000  0.0000  0.0000
 5858OM     OM1 5858   7.495   0.118   0.238  0.0000  0.0000  0.0000
 5859OM     OM1 5859   7.248   0.066   0.282  0.0000  0.0000  0.0000
 5860OM     OM1 5860   2.856   8.821   8.442  0.0000  0.0000  0.0000
 5861OM     OM1 5861   2.811   8.915   8.674  0.0000  0.0000  0.0000
 5862OM     OM1 5862   5.962   2.841   8.686  0.0000  0.0000  0.0000
 5863OM     OM1 5863   5.824   2.893   9.122  0.0000  0.0000  0.0000
 5864OM     OM1 5864   5.818   2.794   8.899  0.0000  0.0000  0.0000
 5865OM     OM1 5865   1.609   4.926   8.625  0.0000  0.0000  0.0000
 5866OM     OM1 5866   1.389   5.059   8.562  0.0000  0.0000  0.0000
 5867OM     OM1 5867   1.462   5.029   8.810  0.0000  0.0000  0.0000
 5868OM     OM1 5868   0.776   6.458   0.076  0.0000  0.0000  0.0000
 5869OM     OM1 5869   0.940   6.249   0.108  0.0000  0.0000  0.0000
 5870OM     OM1 5870   3.912   2.789   0.880  0.0000  0.0000  0.0000
 5871OM     OM1 5871   3.714   2.883   1.024  0.0000  0.0000  0.0000
 5872OM     OM1 5872   3.694   2.886   0.761  0.0000  0.0000  0.0000
 5873OM     OM1 5873   6.097   5.920   0.349  0.0000  0.0000  0.0000
 5874OM     OM1 5874   6.179   6.170   0.401  0.0000  0.0000  0.0000
 5875OM     OM1 5875   6.112   6.098   0.159  0.0000  0.0000  0.0000
 5876OM     OM1 5876   2.063   7.497   9.523  0.0000  0.0000  0.0000
 5877OM     OM1 5877   1.919   7.640   0.070  0.0000  0.0000  0.0000
 5878OM     OM1 5878   2.096   7.763   9.521  0.0000  0.0000  0.0000
 5879OM     OM1 5879   2.184   7.619   0.110  0.0000  0.0000  0.0000
 5880OM     OM1 5880   5.645   7.710   8.963  0.0000  0.0000  0.0000
 5881OM     OM1 5881   5.635   7.944   9.049  0.0000  0.0000  0.0000
 5882OM     OM1 5882   5.748   7.754   9.202  0.0000  0.0000  0.0000
 5883OM     OM1 5883   5.861   7.865   8.977  0.0000  0.0000  0.0000
 5884OM     OM1 5884   2.306   1.500   0.826  0.0000  0.0000  0.0000
 5885OM     OM1 5885   2.364   1.474   0.564  0.0000  0.0000  0.0000
 5886OM     OM1 5886   2.362   1.713   0.676  0.0000  0.0000  0.0000
 5887OM     OM1 5887   2.109   3.060   8.645  0.0000  0.0000  0.0000
 5888OM     OM1 5888   2.025   2.804   8.623  0.0000  0.0000  0.0000
 5889OM     OM1 5889   1.819   3.827   9.582  0.0000  0.0000  0.0000
 5890OM     OM1 5890   1.936   3.976   0.162  0.0000  0.0000  0.0000
 5891OM     OM1 5891   1.817   3.747   0.222  0.0000  0.0000  0.0000
 5892OM     OM1 5892   1.205   9.482   1.070  0.0000  0.0000  0.0000
 5893OM     OM1 5893   1.137   9.238   1.076  0.0000  0.0000  0.0000
 5894OM     OM1 5894   1.395   9.300   1.108  0.0000  0.0000  0.0000
 5895OM     OM1 5895   5.154   5.664   9.115  0.0000  0.0000  0.0000
 5896OM     OM1 5896   5.176   5.452   8.965  0.0000  0.0000  0.0000
 5897OM     OM1 5897   5.002   5.449   9.154  0.0000  0.0000  0.0000
 5898OM     OM1 5898   6.574   5.539   1.047  0.0000  0.0000  0.0000
 5899OM     OM1 5899   6.749   5.607   0.869  0.0000  0.0000  0.0000
 5900OM     OM1 5900   6.574   5.783   0.931  0.0000  0.0000  0.0000
 5901OM     OM1 5901   3.239   5.838   0.287  0.0000  0.0000  0.0000
 5902OM     OM1 5902   3.234   5.708   0.065  0.0000  0.0000  0.0000
 5903OM     OM1 5903   3.471   5.773   0.169  0.0000  0.0000  0.0000
 5904OM     OM1 5904   9.290   3.939   8.870  0.0000  0.0000  0.0000
 5905OM     OM1 5905   9.175   3.721   8.963  0.0000  0.0000  0.0000
 5906OM     OM1 5906   9.027   3.894   8.843  0.0000  0.0000  0.0000
 5907OM     OM1 5907   9.193   3.763   8.698  0.0000  0.0000  0.0000
 5908OM     OM1 5908   0.465   0.106   8.896  0.0000  0.0000  0.0000
 5909OM     OM1 5909   0.280   9.520   8.894  0.0000  0.0000  0.0000
 5910OM     OM1 5910   0.290   0.077   9.090  0.0000  0.0000  0.0000
 5911OM     OM1 5911   2.242   5.136   9.313  0.0000  0.0000  0.0000
 5912OM     OM1 5912   2.426   5.114   9.121  0.0000  0.0000  0.0000
 5913OM     OM1 5913   2.374   4.908   9.254  0.0000  0.0000  0.0000
 5914OM     OM1 5914   2.224   4.072   8.705  0.0000  0.0000  0.0000
 5915OM     OM1 5915   2.129   4.017   8.931  0.0000  0.0000  0.0000
 5916OM     OM1 5916   2.109   3.838   8.735  0.0000  0.0000  0.0000
 5917OM     OM1 5917   5.564   8.790   8.880  0.0000  0.0000  0.0000
 5918OM     OM1 5918   5.726   8.941   9.006  0.0000  0.0000  0.0000
 5919OM     OM1 5919   3.924   4.761   1.412  0.0000  0.0000  0.0000
 5920OM     OM1 5920   6.622   0.926   9.595  0.0000  0.0000  0.0000
 5921OM     OM1 5921   6.598   0.911   9.329  0.0000  0.0000  0.0000
 5922OM     OM1 5922   6.553   1.136   9.451  0.0000  0.0000  0.0000
 5923OM     OM1 5923   3.023   5.300   9.513  0.0000  0.0000  0.0000
 5924OM     OM1 5924   3.199   5.363   0.081  0.0000  0.0000  0.0000
 5925OM     OM1 5925   3.120   5.542   9.514  0.0000  0.0000  0.0000
 5926OM     OM1 5926   0.887   7.625   0.525  0.0000  0.0000  0.0000
 5927OM     OM1 5927   1.199   7.626   0.659  0.0000  0.0000  0.0000
 5928OM     OM1 5928   1.835   6.280   1.013  0.0000  0.0000  0.0000
 5929OM     OM1 5929   2.073   6.199   0.961  0.0000  0.0000  0.0000
 5930OM     OM1 5930   9.522   2.129   0.413  0.0000  0.0000  0.0000
 5931OM     OM1 5931   9.428   1.950   0.257  0.0000  0.0000  0.0000
 5932OM     OM1 5932   9.501   2.177   0.154  0.0000  0.0000  0.0000
 5933OM     OM1 5933   9.288   2.173   0.299  0.0000  0.0000  0.0000
 5934OM     OM1 5934   1.555   5.405   0.704  0.0000  0.0000  0.0000
 5935OM     OM1 5935   8.485   7.130   9.204  0.0000  0.0000  0.0000
 5936OM     OM1 5936   8.285   7.205   9.360  0.0000  0.0000  0.0000
 5937OM     OM1 5937   9.194   4.383   9.105  0.0000  0.0000  0.0000
 5938OM     OM1 5938   9.305   4.177   8.976  0.0000  0.0000  0.0000
 5939OM     OM1 5939   1.515   8.622   0.881  0.0000  0.0000  0.0000
 5940OM     OM1 5940   1.573   8.679   1.119  0.0000  0.0000  0.0000
 5941OM     OM1 5941   1.769   8.616   0.946  0.0000  0.0000  0.0000
 5942OM     OM1 5942   1.616   8.433   1.030  0.0000  0.0000  0.0000
 5943OM     OM1 5943   5.197   2.083   0.373  0.0000  0.0000  0.0000
 5944OM     OM1 5944   5.377   2.268   0.418  0.0000  0.0000  0.0000
 5945OM     OM1 5945   5.112   2.312   0.396  0.0000  0.0000  0.0000
 5946OM     OM1 5946   0.481   8.570   0.831  0.0000  0.0000  0.0000
 5947OM     OM1 5947   0.438   8.442   0.609  0.0000  0.0000  0.0000
 5948OM     OM1 5948   0.241   8.468   0.785  0.0000  0.0000  0.0000
 5949OM     OM1 5949   1.389   7.644   0.403  0.0000  0.0000  0.0000
 5950OM     OM1 5950   1.418   7.901   0.386  0.0000  0.0000  0.0000
 5951OM     OM1 5951   1.618   7.740   0.453  0.0000  0.0000  0.0000
 5952OM     OM1 5952   1.412   7.775   0.619  0.0000  0.0000  0.0000
 5953OM     OM1 5953   4.763   9.464   0.250  0.0000  0.0000  0.0000
 5954OM     OM1 5954   4.896   0.079   0.318  0.0000  0.0000  0.0000
 5955OM     OM1 5955   4.799   9.540   0.492  0.0000  0.0000  0.0000
 5956OM     OM1 5956   4.629   0.061   0.340  0.0000  0.0000  0.0000
 5957OM     OM1 5957   7.968   0.294   9.465  0.0000  0.0000  0.0000
 5958OM     OM1 5958   7.887   0.348   0.092  0.0000  0.0000  0.0000
 5959OM     OM1 5959   7.854   0.522   9.507  0.0000  0.0000  0.0000
 5960OM     OM1 5960   7.700   0.319   9.508  0.0000  0.0000  0.0000
 5961OM     OM1 5961   3.485   5.876   1.120  0.0000  0.0000  0.0000
 5962OM     OM1 5962   3.396   5.693   0.960  0.0000  0.0000  0.0000
 5963OM     OM1 5963   2.588   6.859   1.112  0.0000  0.0000  0.0000
 5964OM     OM1 5964   2.704   7.161   1.196  0.0000  0.0000  0.0000
 5965OM     OM1 5965   2.760   6.932   1.287  0.0000  0.0000  0.0000
 5966OM     OM1 5966   3.897   1.638   0.193  0.0000  0.0000  0.0000
 5967OM     OM1 5967   4.055   1.649   0.405  0.0000  0.0000  0.0000
 5968OM     OM1 5968   8.084   3.912   1.067  0.0000  0.0000  0.0000
 5969OM     OM1 5969   8.212   3.703   1.182  0.0000  0.0000  0.0000
 5970OM     OM1 5970   3.401   4.669   8.696  0.0000  0.0000  0.0000
 5971OM     OM1 5971   3.531   4.467   8.813  0.0000  0.0000  0.0000
 5972OM     OM1 5972   3.325   4.415   8.669  0.0000  0.0000  0.0000
 5973OM     OM1 5973   3.445   4.802   8.898  0.0000  0.0000  0.0000
 5974OM     OM1 5974   5.592   9.026   1.411  0.0000  0.0000  0.0000
 5975OM     OM1 5975   5.821   9.107   1.314  0.0000  0.0000  0.0000
 5976OM     OM1 5976   3.561   5.599   0.782  0.0000  0.0000  0.0000
 5977OM     OM1 5977   3.790   5.627   0.901  0.0000  0.0000  0.0000
 5978OM     OM1 5978   4.680   4.764   0.864  0.0000  0.0000  0.0000
 5979OM     OM1 5979   4.787   5.167   1.064  0.0000  0.0000  0.0000
 5980OM     OM1 5980   4.826   4.911   1.013  0.0000  0.0000  0.0000
 5981OM     OM1 5981   4.616   4.802   1.118  0.0000  0.0000  0.0000
 5982OM     OM1 5982   1.820   8.908   1.079  0.0000  0.0000  0.0000
 5983OM     OM1 5983   1.963   9.085   0.942  0.0000  0.0000  0.0000
 5984OM     OM1 5984   3.560   4.199   0.454  0.0000  0.0000  0.0000
 5985OM     OM1 5985   3.727   4.368   0.356  0.0000  0.0000  0.0000
 5986OM     OM1 5986   3.634   4.411   0.602  0.0000  0.0000  0.0000
 5987OM     OM1 5987   6.700   3.662   8.999  0.0000  0.0000  0.0000
 5988OM     OM1 5988   6.739   3.908   9.067  0.0000  0.0000  0.0000
 5989OM     OM1 5989   7.040   7.611   0.630  0.0000  0.0000  0.0000
 5990OM     OM1 5990   7.137   7.764   0.449  0.0000  0.0000  0.0000
 5991OM     OM1 5991   6.152   2.945   1.190  0.0000  0.0000  0.0000
 5992OM     OM1 5992   6.377   3.071   1.141  0.0000  0.0000  0.0000
 5993OM     OM1 5993   1.237   5.609   9.134  0.0000  0.0000  0.0000
 5994OM     OM1 5994   1.106   5.535   8.922  0.0000  0.0000  0.0000
 5995OM     OM1 5995   1.364   5.481   8.948  0.0000  0.0000  0.0000
 5996OM     OM1 5996   1.294   5.726   8.906  0.0000  0.0000  0.0000
 5997OM     OM1 5997   5.776   3.271   1.425  0.0000  0.0000  0.0000
 5998OM     OM1 5998   5.837   3.013   1.431  0.0000  0.0000  0.0000
 5999OM     OM1 5999   4.824   6.816   0.233  0.0000  0.0000  0.0000
 6000OM     OM1 6000   2.641   3.422   1.347  0.0000  0.0000  0.0000
 6001OM     OM1 6001   2.461   3.598   1.296  0.0000  0.0000  0.0000
 6002OM     OM1 6002   5.855   0.826   9.034  0.0000  0.0000  0.0000
 6003OM     OM1 6003   5.642   0.943   9.132  0.0000  0.0000  0.0000
 6004OM     OM1 6004   5.648   0.687   9.109  0.0000  0.0000  0.0000
 6005OM     OM1 6005   3.952   7.087   8.428  0.0000  0.0000  0.0000
 6006OM     OM1 6006   3.932   6.821   8.440  0.0000  0.0000  0.0000
 6007OM     OM1 6007   4.921   3.311   9.455  0.0000  0.0000  0.0000
 6008OM     OM1 6008   4.942   3.455   0.070  0.0000  0.0000  0.0000
 6009OM     OM1 6009   4.886   3.205   0.099  0.0000  0.0000  0.0000
 6010OM     OM1 6010   5.115   3.266   0.016  0.0000  0.0000  0.0000
 6011OM     OM1 6011   9.373   4.174   9.508  0.0000  0.0000  0.0000
 6012OM     OM1 6012   9.340   3.924   9.562  0.0000  0.0000  0.0000
 6013OM     OM1 6013   8.421   9.472   8.435  0.0000  0.0000  0.0000
 6014OM     OM1 6014   8.674   9.399   8.438  0.0000  0.0000  0.0000
 6015OM     OM1 6015   8.503   9.303   8.610  0.0000  0.0000  0.0000
 6016OM     OM1 6016   5.286   4.688   0.801  0.0000  0.0000  0.0000
 6017OM     OM1 6017   5.290   4.422   0.771  0.0000  0.0000  0.0000
 6018OM     OM1 6018   5.353   4.584   0.571  0.0000  0.0000  0.0000
 6019OM     OM1 6019   5.106   4.555   0.656  0.0000  0.0000  0.0000
 6020OM     OM1 6020   6.948   8.662   9.023  0.0000  0.0000  0.0000
 6021OM     OM1 6021   7.136   8.749   9.186  0.0000  0.0000  0.0000
 6022OM     OM1 6022   2.614   2.373   9.523  0.0000  0.0000  0.0000
 6023OM     OM1 6023   2.512   2.606   9.553  0.0000  0.0000  0.0000
 6024OM     OM1 6024   2.728   2.531   0.084  0.0000  0.0000  0.0000
 6025OM     OM1 6025   2.731   2.573   9.417  0.0000  0.0000  0.0000
 6026OM     OM1 6026   4.262   5.531   8.258  0.0000  0.0000  0.0000
 6027OM     OM1 6027   4.362   5.741   8.367  0.0000  0.0000  0.0000
 6028OM     OM1 6028   4.309   0.969   1.002  0.0000  0.0000  0.0000
 6029OM     OM1 6029   4.193   0.926   0.776  0.0000  0.0000  0.0000
 6030OM     OM1 6030   4.431   0.821   0.829  0.0000  0.0000  0.0000
 6031OM     OM1 6031   7.405   3.657   1.294  0.0000  0.0000  0.0000
 6032OM     OM1 6032   7.586   3.818   1.268  0.0000  0.0000  0.0000
 6033OM     OM1 6033   2.693   2.770   0.609  0.0000  0.0000  0.0000
 6034OM     OM1 6034   2.905   2.646   0.669  0.0000  0.0000  0.0000
 6035OM     OM1 6035   3.303   5.684   9.282  0.0000  0.0000  0.0000
 6036OM     OM1 6036   3.546   5.740   9.361  0.0000  0.0000  0.0000
 6037OM     OM1 6037   3.511   5.595   9.145  0.0000  0.0000  0.0000
 6038OM     OM1 6038   4.904   8.413   8.278  0.0000  0.0000  0.0000
 6039OM     OM1 6039   6.995   9.371   8.602  0.0000  0.0000  0.0000
 6040OM     OM1 6040   6.963   9.511   8.813  0.0000  0.0000  0.0000
 6041OM     OM1 6041   7.056   9.275   8.844  0.0000  0.0000  0.0000
 6042OM     OM1 6042   6.812   9.292   8.781  0.0000  0.0000  0.0000
 6043OM     OM1 6043   4.985   1.290   0.067  0.0000  0.0000  0.0000
 6044OM     OM1 6044   4.801   1.319   9.473  0.0000  0.0000  0.0000
 6045OM     OM1 6045   4.836   1.499   0.041  0.0000  0.0000  0.0000
 6046OM     OM1 6046   4.729   1.260   0.109  0.0000  0.0000  0.0000
 6047OM     OM1 6047   4.763   6.040   0.286  0.0000  0.0000  0.0000
 6048OM     OM1 6048   4.831   5.862   0.120  0.0000  0.0000  0.0000
 6049OM     OM1 6049   4.720   5.798   0.351  0.0000  0.0000  0.0000
 6050OM     OM1 6050   1.503   9.496   9.147  0.0000  0.0000  0.0000
 6051OM     OM1 6051   4.383   1.053   1.241  0.0000  0.0000  0.0000
 6052OM     OM1 6052   6.681   6.020   0.851  0.0000  0.0000  0.0000
 6053OM     OM1 6053   6.782   6.262   0.900  0.0000  0.0000  0.0000
 6054OM     OM1 6054   6.932   6.048   0.903  0.0000  0.0000  0.0000
 6055OM     OM1 6055   6.627   8.607   8.657  0.0000  0.0000  0.0000
 6056OM     OM1 6056   6.769   8.634   8.460  0.0000  0.0000  0.0000
 6057OM     OM1 6057   6.528   8.709   8.428  0.0000  0.0000  0.0000
 6058OM     OM1 6058   0.977   7.274   9.511  0.0000  0.0000  0.0000
 6059OM     OM1 6059   0.969   7.513   9.407  0.0000  0.0000  0.0000
 6060OM     OM1 6060   0.757   7.353   9.395  0.0000  0.0000  0.0000
 6061OM     OM1 6061   2.455   9.355   0.089  0.0000  0.0000  0.0000
 6062OM     OM1 6062   3.824   8.179   0.499  0.0000  0.0000  0.0000
 6063OM     OM1 6063   4.005   8.248   0.666  0.0000  0.0000  0.0000
 6064OM     OM1 6064   3.967   8.399   0.456  0.0000  0.0000  0.0000
 6065OM     OM1 6065   7.482   7.694   9.190  0.0000  0.0000  0.0000
 6066OM     OM1 6066   7.496   7.941   9.118  0.0000  0.0000  0.0000
 6067OM     OM1 6067   7.583   7.866   9.356  0.0000  0.0000  0.0000
 6068OM     OM1 6068   7.072   5.165   0.056  0.0000  0.0000  0.0000
 6069OM     OM1 6069   7.216   5.363   9.535  0.0000  0.0000  0.0000
 6070OM     OM1 6070   4.550   7.842   8.570  0.0000  0.0000  0.0000
 6071OM     OM1 6071   4.351   7.995   8.576  0.0000  0.0000  0.0000
 6072OM     OM1 6072   4.571   8.052   8.714  0.0000  0.0000  0.0000
 6073OM     OM1 6073   4.566   8.083   8.456  0.0000  0.0000  0.0000
 6074OM     OM1 6074   6.278   2.691   9.070  0.0000  0.0000  0.0000
 6075OM     OM1 6075   6.063   2.816   9.049  0.0000  0.0000  0.0000
 6076OM     OM1 6076   7.086   3.175   0.946  0.0000  0.0000  0.0000
 6077OM     OM1 6077   6.851   3.226   1.029  0.0000  0.0000  0.0000
 6078OM     OM1 6078   6.975   3.422   0.895  0.0000  0.0000  0.0000
 6079OM     OM1 6079   2.686   6.402   1.161  0.0000  0.0000  0.0000
 6080OM     OM1 6080   2.910   6.558   1.188  0.0000  0.0000  0.0000
 6081OM     OM1 6081   0.357   4.873   0.625  0.0000  0.0000  0.0000
 6082OM     OM1 6082   0.526   4.954   0.809  0.0000  0.0000  0.0000
 6083OM     OM1 6083   0.535   5.053   0.561  0.0000  0.0000  0.0000
 6084OM     OM1 6084   0.404   2.685   0.120  0.0000  0.0000  0.0000
 6085OM     OM1 6085   0.651   2.705   0.044  0.0000  0.0000  0.0000
 6086OM     OM1 6086   0.474   2.531   9.533  0.0000  0.0000  0.0000
 6087OM     OM1 6087   0.477   2.786   9.486  0.0000  0.0000  0.0000
 6088OM     OM1 6088   4.756   9.244   1.282  0.0000  0.0000  0.0000
 6089OM     OM1 6089   4.919   9.018   1.295  0.0000  0.0000  0.0000
 6090OM     OM1 6090   9.489   2.799   9.040  0.0000  0.0000  0.0000
 6091OM     OM1 6091   0.031   3.000   8.973  0.0000  0.0000  0.0000
 6092OM     OM1 6092   0.098   2.832   9.177  0.0000  0.0000  0.0000
 6093OM     OM1 6093   0.129   2.765   8.935  0.0000  0.0000  0.0000
 6094OM     OM1 6094   3.195   8.691   9.247  0.0000  0.0000  0.0000
 6095OM     OM1 6095   3.452   8.714   9.173  0.0000  0.0000  0.0000
 6096OM     OM1 6096   3.310   8.520   9.088  0.0000  0.0000  0.0000
 6097OM     OM1 6097   2.368   1.421   8.606  0.0000  0.0000  0.0000
 6098OM     OM1 6098   2.212   1.296   8.779  0.0000  0.0000  0.0000
 6099OM     OM1 6099   6.944   9.101   1.297  0.0000  0.0000  0.0000
 6100OM     OM1 6100   6.776   9.307   1.291  0.0000  0.0000  0.0000
 6101OM     OM1 6101   7.031   9.339   1.261  0.0000  0.0000  0.0000
 6102OM     OM1 6102   5.660   0.686   9.371  0.0000  0.0000  0.0000
 6103OM     OM1 6103   5.714   0.472   9.252  0.0000  0.0000  0.0000
 6104OM     OM1 6104   2.843   5.271   9.329  0.0000  0.0000  0.0000
 6105OM     OM1 6105   2.605   5.276   9.221  0.0000  0.0000  0.0000
 6106OM     OM1 6106   2.794   5.402   9.111  0.0000  0.0000  0.0000
 6107OM     OM1 6107   2.713   5.493   9.344  0.0000  0.0000  0.0000
 6108OM     OM1 6108   0.336   2.902   8.312  0.0000  0.0000  0.0000
 6109OM     OM1 6109   0.245   3.063   8.494  0.0000  0.0000  0.0000
 6110OM     OM1 6110   0.472   3.117   8.369  0.0000  0.0000  0.0000
 6111OM     OM1 6111   8.088   1.987   0.313  0.0000  0.0000  0.0000
 6112OM     OM1 6112   8.497   2.225   0.456  0.0000  0.0000  0.0000
 6113OM     OM1 6113   8.296   2.062   0.463  0.0000  0.0000  0.0000
 6114OM     OM1 6114   8.528   5.255   0.757  0.0000  0.0000  0.0000
 6115OM     OM1 6115   8.687   5.581   0.542  0.0000  0.0000  0.0000
 6116OM     OM1 6116   7.784   7.787   8.293  0.0000  0.0000  0.0000
 6117OM     OM1 6117   7.590   7.918   8.425  0.0000  0.0000  0.0000
 6118OM     OM1 6118   3.643   4.839   9.448  0.0000  0.0000  0.0000
 6119OM     OM1 6119   3.219   1.703   0.838  0.0000  0.0000  0.0000
 6120OM     OM1 6120   3.391   1.520   0.912  0.0000  0.0000  0.0000
 6121OM     OM1 6121   3.478   1.748   0.828  0.0000  0.0000  0.0000
 6122OM     OM1 6122   1.465   1.634   1.214  0.0000  0.0000  0.0000
 6123OM     OM1 6123   1.484   1.375   1.211  0.0000  0.0000  0.0000
 6124OM     OM1 6124   3.940   6.853   1.000  0.0000  0.0000  0.0000
 6125OM     OM1 6125   3.935   6.608   1.065  0.0000  0.0000  0.0000
 6126OM     OM1 6126   4.011   6.785   1.237  0.0000  0.0000  0.0000
 6127OM     OM1 6127   4.165   6.706   1.034  0.0000  0.0000  0.0000
 6128OM     OM1 6128   9.593   3.057   9.459  0.0000  0.0000  0.0000
 6129OM     OM1 6129   4.664   6.807   0.961  0.0000  0.0000  0.0000
 6130OM     OM1 6130   4.807   6.873   1.189  0.0000  0.0000  0.0000
 6131OM     OM1 6131   4.558   6.866   1.186  0.0000  0.0000  0.0000
 6132OM     OM1 6132   1.028   9.375   9.211  0.0000  0.0000  0.0000
 6133OM     OM1 6133   0.893   9.217   9.369  0.0000  0.0000  0.0000
 6134OM     OM1 6134   1.147   9.182   9.346  0.0000  0.0000  0.0000
 6135OM     OM1 6135   0.948   9.118   8.949  0.0000  0.0000  0.0000
 6136OM     OM1 6136   0.810   9.431   9.074  0.0000  0.0000  0.0000
 6137OM     OM1 6137   5.441   8.595   0.656  0.0000  0.0000  0.0000
 6138OM     OM1 6138   5.302   8.680   0.853  0.0000  0.0000  0.0000
 6139OM     OM1 6139   5.397   8.853   0.680  0.0000  0.0000  0.0000
 6140OM     OM1 6140   5.202   8.693   0.612  0.0000  0.0000  0.0000
 6141OM     OM1 6141   6.106   1.176   0.706  0.0000  0.0000  0.0000
 6142OM     OM1 6142   6.180   1.413   0.652  0.0000  0.0000  0.0000
 6143OM     OM1 6143   6.004   1.300   0.488  0.0000  0.0000  0.0000
 6144OM     OM1 6144   6.735   5.146   8.507  0.0000  0.0000  0.0000
 6145OM     OM1 6145   4.064   8.510   8.459  0.0000  0.0000  0.0000
 6146OM     OM1 6146   4.155   8.423   8.687  0.0000  0.0000  0.0000
 6147OM     OM1 6147   4.325   8.441   8.494  0.0000  0.0000  0.0000
 6148OM     OM1 6148   8.325   7.634   1.262  0.0000  0.0000  0.0000
 6149OM     OM1 6149   8.200   7.419   1.220  0.0000  0.0000  0.0000
 6150OM     OM1 6150   7.485   6.974   1.181  0.0000  0.0000  0.0000
 6151OM     OM1 6151   7.415   6.727   1.214  0.0000  0.0000  0.0000
 6152OM     OM1 6152   7.235   6.918   1.170  0.0000  0.0000  0.0000
 6153OM     OM1 6153   7.385   6.854   0.976  0.0000  0.0000  0.0000
 6154OM     OM1 6154   0.411   6.243   8.927  0.0000  0.0000  0.0000
 6155OM     OM1 6155   8.075   9.324   9.496  0.0000  0.0000  0.0000
 6156OM     OM1 6156   7.878   9.326   9.336  0.0000  0.0000  0.0000
 6157OM     OM1 6157   8.095   9.193   9.258  0.0000  0.0000  0.0000
 6158OM     OM1 6158   6.876   4.399   0.146  0.0000  0.0000  0.0000
 6159OM     OM1 6159   6.673   4.345   9.587  0.0000  0.0000  0.0000
 6160OM     OM1 6160   8.669   0.152   9.181  0.0000  0.0000  0.0000
 6161OM     OM1 6161   8.720   9.472   9.217  0.0000  0.0000  0.0000
 6162OM     OM1 6162   8.938   9.562   9.135  0.0000  0.0000  0.0000
 6163OM     OM1 6163   4.576   3.437   8.447  0.0000  0.0000  0.0000
 6164OM     OM1 6164   4.317   3.416   8.490  0.0000  0.0000  0.0000
 6165OM     OM1 6165   0.895   0.965   8.977  0.0000  0.0000  0.0000
 6166OM     OM1 6166   0.764   0.870   9.178  0.0000  0.0000  0.0000
 6167OM     OM1 6167   4.619   9.300   0.832  0.0000  0.0000  0.0000
 6168OM     OM1 6168   4.393   0.071   0.994  0.0000  0.0000  0.0000
 6169OM     OM1 6169   4.211   9.564   0.831  0.0000  0.0000  0.0000
 6170OM     OM1 6170   4.443   9.473   0.836  0.0000  0.0000  0.0000
 6171OM     OM1 6171   3.910   9.498   8.695  0.0000  0.0000  0.0000
 6172OM     OM1 6172   3.843   9.521   8.440  0.0000  0.0000  0.0000
 6173OM     OM1 6173   4.755   8.202   8.321  0.0000  0.0000  0.0000
 6174OM     OM1 6174   5.004   8.230   8.430  0.0000  0.0000  0.0000
 6175OM     OM1 6175   1.242   9.569   0.399  0.0000  0.0000  0.0000
 6176OM     OM1 6176   1.243   9.531   9.602  0.0000  0.0000  0.0000
 6177OM     OM1 6177   1.436   0.112   0.003  0.0000  0.0000  0.0000
 6178OM     OM1 6178   1.069   0.132   0.427  0.0000  0.0000  0.0000
 6179OM     OM1 6179   8.812   7.319   8.713  0.0000  0.0000  0.0000
 6180OM     OM1 6180   8.980   7.508   8.751  0.0000  0.0000  0.0000
 6181OM     OM1 6181   3.983   3.461   9.329  0.0000  0.0000  0.0000
 6182OM     OM1 6182   4.194   3.524   9.198  0.0000  0.0000  0.0000
 6183OM     OM1 6183   4.043   3.341   9.094  0.0000  0.0000  0.0000
 6184OM     OM1 6184   4.176   3.284   9.311  0.0000  0.0000  0.0000
 6185OM     OM1 6185   9.156   4.383   1.207  0.0000  0.0000  0.0000
 6186OM     OM1 6186   9.365   4.528   1.261  0.0000  0.0000  0.0000
 6187OM     OM1 6187   9.319   4.298   1.385  0.0000  0.0000  0.0000
 6188OM     OM1 6188   4.781   4.670   0.382  0.0000  0.0000  0.0000
 6189OM     OM1 6189   4.844   4.601   0.624  0.0000  0.0000  0.0000
 6190OM     OM1 6190   4.654   4.766   0.599  0.0000  0.0000  0.0000
 6191OM     OM1 6191   4.612   4.525   0.510  0.0000  0.0000  0.0000
 6192OM     OM1 6192   8.771   8.858   8.416  0.0000  0.0000  0.0000
 6193OM     OM1 6193   7.392   4.709   8.988  0.0000  0.0000  0.0000
 6194OM     OM1 6194   7.580   4.864   8.920  0.0000  0.0000  0.0000
 6195OM     OM1 6195   7.327   4.927   8.856  0.0000  0.0000  0.0000
 6196OM     OM1 6196   7.402   4.953   9.098  0.0000  0.0000  0.0000
 6197OM     OM1 6197   0.217   2.675   8.257  0.0000  0.0000  0.0000
 6198OM     OM1 6198   0.137   2.496   8.429  0.0000  0.0000  0.0000
 6199OM     OM1 6199   9.568   5.924   8.428  0.0000  0.0000  0.0000
 6200OM     OM1 6200   0.015   7.538   8.566  0.0000  0.0000  0.0000
 6201OM     OM1 6201   0.178   7.603   8.377  0.0000  0.0000  0.0000
 6202OM     OM1 6202   0.072   7.778   8.562  0.0000  0.0000  0.0000
 6203OM     OM1 6203   6.288   2.379   0.291  0.0000  0.0000  0.0000
 6204OM     OM1 6204   6.214   2.506   0.519  0.0000  0.0000  0.0000
 6205OM     OM1 6205   7.786   8.147   9.282  0.0000  0.0000  0.0000
 6206OM     OM1 6206   7.791   8.171   9.558  0.0000  0.0000  0.0000
 6207OM     OM1 6207   7.640   8.315   9.398  0.0000  0.0000  0.0000
 6208OM     OM1 6208   3.700   8.770   0.046  0.0000  0.0000  0.0000
 6209OM     OM1 6209   3.784   8.822   9.402  0.0000  0.0000  0.0000
 6210OM     OM1 6210   6.349   4.195   9.153  0.0000  0.0000  0.0000
 6211OM     OM1 6211   6.241   4.251   9.386  0.0000  0.0000  0.0000
 6212OM     OM1 6212   6.097   4.239   9.164  0.0000  0.0000  0.0000
 6213OM     OM1 6213   6.190   4.020   9.257  0.0000  0.0000  0.0000
 6214OM     OM1 6214   3.609   1.482   1.030  0.0000  0.0000  0.0000
 6215OM     OM1 6215   2.680   4.569   0.604  0.0000  0.0000  0.0000
 6216OM     OM1 6216   2.912   4.458   0.523  0.0000  0.0000  0.0000
 6217OM     OM1 6217   2.775   4.360   0.718  0.0000  0.0000  0.0000
 6218OM     OM1 6218   2.428   4.034   8.548  0.0000  0.0000  0.0000
 6219OM     OM1 6219   2.528   3.973   8.309  0.0000  0.0000  0.0000
 6220OM     OM1 6220   0.688   0.010   8.940  0.0000  0.0000  0.0000
 6221OM     OM1 6221   8.993   7.761   0.258  0.0000  0.0000  0.0000
 6222OM     OM1 6222   9.168   7.573   0.279  0.0000  0.0000  0.0000
 6223OM     OM1 6223   8.183   2.534   8.548  0.0000  0.0000  0.0000
 6224OM     OM1 6224   8.044   2.660   8.346  0.0000  0.0000  0.0000
 6225OM     OM1 6225   8.297   2.696   8.368  0.0000  0.0000  0.0000
 6226OM     OM1 6226   1.151   5.207   9.390  0.0000  0.0000  0.0000
 6227OM     OM1 6227   1.158   4.956   9.461  0.0000  0.0000  0.0000
 6228OM     OM1 6228   1.303   5.113   9.587  0.0000  0.0000  0.0000
 6229OM     OM1 6229   7.184   4.035   1.302  0.0000  0.0000  0.0000
 6230OM     OM1 6230   7.961   5.550   1.215  0.0000  0.0000  0.0000
 6231OM     OM1 6231   7.996   5.787   1.116  0.0000  0.0000  0.0000
 6232OM     OM1 6232   7.757   5.714   1.190  0.0000  0.0000  0.0000
 6233OM     OM1 6233   0.105   3.638   8.269  0.0000  0.0000  0.0000
 6234OM     OM1 6234   8.171   9.324   8.804  0.0000  0.0000  0.0000
 6235OM     OM1 6235   8.211   0.032   8.415  0.0000  0.0000  0.0000
 6236OM     OM1 6236   0.223   1.869   8.609  0.0000  0.0000  0.0000
 6237OM     OM1 6237   0.378   1.918   8.817  0.0000  0.0000  0.0000
 6238OM     OM1 6238   0.367   2.077   8.592  0.0000  0.0000  0.0000
 6239OM     OM1 6239   7.149   8.534   8.599  0.0000  0.0000  0.0000
 6240OM     OM1 6240   7.326   8.477   8.763  0.0000  0.0000  0.0000
 6241OM     OM1 6241   7.384   8.629   8.541  0.0000  0.0000  0.0000
 6242OM     OM1 6242   7.254   8.723   8.744  0.0000  0.0000  0.0000
 6243OM     OM1 6243   5.413   8.006   1.015  0.0000  0.0000  0.0000
 6244OM     OM1 6244   5.581   7.816   0.942  0.0000  0.0000  0.0000
 6245OM     OM1 6245   7.485   5.840   0.699  0.0000  0.0000  0.0000
 6246OM     OM1 6246   6.477   4.532   8.807  0.0000  0.0000  0.0000
 6247OM     OM1 6247   6.717   4.509   8.884  0.0000  0.0000  0.0000
 6248OM     OM1 6248   3.808   3.547   9.503  0.0000  0.0000  0.0000
 6249OM     OM1 6249   3.668   3.355   9.401  0.0000  0.0000  0.0000
 6250OM     OM1 6250   3.659   3.393   0.053  0.0000  0.0000  0.0000
 6251OM     OM1 6251   5.707   1.123   1.282  0.0000  0.0000  0.0000
 6252OM     OM1 6252   4.945   8.684   0.515  0.0000  0.0000  0.0000
 6253OM     OM1 6253   4.725   8.774   0.629  0.0000  0.0000  0.0000
 6254OM     OM1 6254   4.783   8.524   0.637  0.0000  0.0000  0.0000
 6255OM     OM1 6255   9.392   3.321   0.662  0.0000  0.0000  0.0000
 6256OM     OM1 6256   9.571   3.556   0.512  0.0000  0.0000  0.0000
 6257OM     OM1 6257   9.464   3.284   0.414  0.0000  0.0000  0.0000
 6258OM     OM1 6258   0.035   3.330   0.603  0.0000  0.0000  0.0000
 6259OM     OM1 6259   5.470   8.791   0.035  0.0000  0.0000  0.0000
 6260OM     OM1 6260   5.531   8.754   9.385  0.0000  0.0000  0.0000
 6261OM     OM1 6261   5.716   8.844   9.555  0.0000  0.0000  0.0000
 6262OM     OM1 6262   0.975   3.567   1.130  0.0000  0.0000  0.0000
 6263OM     OM1 6263   0.737   3.622   1.216  0.0000  0.0000  0.0000
 6264OM     OM1 6264   0.760   3.426   1.047  0.0000  0.0000  0.0000
 6265OM     OM1 6265   2.584   9.208   1.137  0.0000  0.0000  0.0000
 6266OM     OM1 6266   9.217   7.298   8.552  0.0000  0.0000  0.0000
 6267OM     OM1 6267   7.152   5.462   8.283  0.0000  0.0000  0.0000
 6268OM     OM1 6268   7.665   2.360   0.319  0.0000  0.0000  0.0000
 6269OM     OM1 6269   7.406   2.388   0.293  0.0000  0.0000  0.0000
 6270OM     OM1 6270   7.516   2.345   0.526  0.0000  0.0000  0.0000
 6271OM     OM1 6271   7.503   2.151   0.339  0.0000  0.0000  0.0000
 6272OM     OM1 6272   5.351   0.236   8.601  0.0000  0.0000  0.0000
 6273OM     OM1 6273   5.215   0.086   8.760  0.0000  0.0000  0.0000
 6274OM     OM1 6274   5.105   0.315   8.667  0.0000  0.0000  0.0000
 6275OM     OM1 6275   4.910   0.349   8.832  0.0000  0.0000  0.0000
 6276OM     OM1 6276   8.332   5.874   8.563  0.0000  0.0000  0.0000
 6277OM     OM1 6277   8.517   6.031   8.481  0.0000  0.0000  0.0000
 6278OM     OM1 6278   1.508   2.119   9.341  0.0000  0.0000  0.0000
 6279OM     OM1 6279   1.569   2.264   9.128  0.0000  0.0000  0.0000
 6280OM     OM1 6280   1.571   1.996   9.131  0.0000  0.0000  0.0000
 6281OM     OM1 6281   1.356   2.131   9.113  0.0000  0.0000  0.0000
 6282OM     OM1 6282   9.483   9.057   0.704  0.0000  0.0000  0.0000
 6283OM     OM1 6283   4.080   4.014   0.260  0.0000  0.0000  0.0000
 6284OM     OM1 6284   4.038   3.889   0.485  0.0000  0.0000  0.0000
 6285OM     OM1 6285   4.266   4.012   0.445  0.0000  0.0000  0.0000
 6286OM     OM1 6286   5.977   7.121   9.146  0.0000  0.0000  0.0000
 6287OM     OM1 6287   6.221   7.220   9.134  0.0000  0.0000  0.0000
 6288OM     OM1 6288   5.601   6.830   0.437  0.0000  0.0000  0.0000
 6289OM     OM1 6289   5.522   6.888   0.201  0.0000  0.0000  0.0000
 6290OM     OM1 6290   6.321   7.504   0.084  0.0000  0.0000  0.0000
 6291OM     OM1 6291   6.138   7.337   0.177  0.0000  0.0000  0.0000
 6292OM     OM1 6292   6.242   5.721   0.423  0.0000  0.0000  0.0000
 6293OM     OM1 6293   6.170   5.755   0.175  0.0000  0.0000  0.0000
 6294OM     OM1 6294   5.996   5.672   0.363  0.0000  0.0000  0.0000
 6295OM     OM1 6295   4.694   3.485   0.156  0.0000  0.0000  0.0000
 6296OM     OM1 6296   4.878   3.587   0.298  0.0000  0.0000  0.0000
 6297OM     OM1 6297   7.611   4.182   0.375  0.0000  0.0000  0.0000
 6298OM     OM1 6298   7.717   4.014   0.198  0.0000  0.0000  0.0000
 6299OM     OM1 6299   7.571   4.211   0.122  0.0000  0.0000  0.0000
 6300OM     OM1 6300   7.814   4.251   0.227  0.0000  0.0000  0.0000
 6301OM     OM1 6301   5.833   1.931   1.006  0.0000  0.0000  0.0000
 6302OM     OM1 6302   5.705   2.071   1.186  0.0000  0.0000  0.0000
 6303OM     OM1 6303   5.807   1.854   1.260  0.0000  0.0000  0.0000
 6304OM     OM1 6304   9.152   8.384   9.502  0.0000  0.0000  0.0000
 6305OM     OM1 6305   8.951   8.287   0.042  0.0000  0.0000  0.0000
 6306OM     OM1 6306   5.269   1.222   1.121  0.0000  0.0000  0.0000
 6307OM     OM1 6307   5.484   1.379   1.139  0.0000  0.0000  0.0000
 6308OM     OM1 6308   5.459   1.157   0.981  0.0000  0.0000  0.0000
 6309OM     OM1 6309   2.136   3.406   8.503  0.0000  0.0000  0.0000
 6310OM     OM1 6310   2.215   3.267   8.293  0.0000  0.0000  0.0000
 6311OM     OM1 6311   6.691   7.167   0.017  0.0000  0.0000  0.0000
 6312OM     OM1 6312   6.815   7.197   9.389  0.0000  0.0000  0.0000
 6313OM     OM1 6313   6.623   7.365   9.455  0.0000  0.0000  0.0000
 6314OM     OM1 6314   6.269   5.874   1.338  0.0000  0.0000  0.0000
 6315OM     OM1 6315   6.431   6.066   1.298  0.0000  0.0000  0.0000
 6316OM     OM1 6316   5.330   6.721   0.140  0.0000  0.0000  0.0000
 6317OM     OM1 6317   5.325   6.501   0.003  0.0000  0.0000  0.0000
 6318OM     OM1 6318   5.508   6.532   0.165  0.0000  0.0000  0.0000
 6319OM     OM1 6319   4.337   8.239   9.116  0.0000  0.0000  0.0000
 6320OM     OM1 6320   4.483   8.398   8.953  0.0000  0.0000  0.0000
 6321OM     OM1 6321   4.262   8.273   8.872  0.0000  0.0000  0.0000
 6322OM     OM1 6322   4.488   8.143   8.935  0.0000  0.0000  0.0000
 6323OM     OM1 6323   9.475   2.470   9.429  0.0000  0.0000  0.0000
 6324OM     OM1 6324   9.423   2.641   9.233  0.0000  0.0000  0.0000
 6325OM     OM1 6325   8.100   8.238   0.768  0.0000  0.0000  0.0000
 6326OM     OM1 6326   7.949   8.068   0.641  0.0000  0.0000  0.0000
 6327OM     OM1 6327   8.171   8.124   0.535  0.0000  0.0000  0.0000
 6328OM     OM1 6328   2.608   7.729   0.941  0.0000  0.0000  0.0000
 6329OM     OM1 6329   2.447   7.579   0.800  0.0000  0.0000  0.0000
 6330OM     OM1 6330   2.688   7.502   0.823  0.0000  0.0000  0.0000
 6331OM     OM1 6331   8.092   8.957   9.562  0.0000  0.0000  0.0000
 6332OM     OM1 6332   8.126   8.769   9.392  0.0000  0.0000  0.0000
 6333OM     OM1 6333   8.337   8.879   9.528  0.0000  0.0000  0.0000
 6334OM     OM1 6334   8.232   8.995   9.339  0.0000  0.0000  0.0000
 6335OM     OM1 6335   2.003   5.849   8.273  0.0000  0.0000  0.0000
 6336OM     OM1 6336   6.161   1.754   0.682  0.0000  0.0000  0.0000
 6337OM     OM1 6337   6.362   1.602   0.630  0.0000  0.0000  0.0000
 6338OM     OM1 6338   5.564   1.725   0.696  0.0000  0.0000  0.0000
 6339OM     OM1 6339   5.576   1.552   0.503  0.0000  0.0000  0.0000
 6340OM     OM1 6340   9.587   5.991   0.797  0.0000  0.0000  0.0000
 6341OM     OM1 6341   9.430   5.971   1.009  0.0000  0.0000  0.0000
 6342OM     OM1 6342   9.572   5.761   0.922  0.0000  0.0000  0.0000
 6343OM     OM1 6343   1.142   3.987   8.718  0.0000  0.0000  0.0000
 6344OM     OM1 6344   1.114   4.127   8.928  0.0000  0.0000  0.0000
 6345OM     OM1 6345   1.066   3.773   8.850  0.0000  0.0000  0.0000
 6346OM     OM1 6346   2.177   1.297   0.522  0.0000  0.0000  0.0000
 6347OM     OM1 6347   2.057   1.083   0.455  0.0000  0.0000  0.0000
 6348OM     OM1 6348   2.117   1.119   0.705  0.0000  0.0000  0.0000
 6349OM     OM1 6349   1.925   1.264   0.600  0.0000  0.0000  0.0000
 6350OM     OM1 6350   7.589   8.398   8.238  0.0000  0.0000  0.0000
 6351OM     OM1 6351   7.507   8.634   8.314  0.0000  0.0000  0.0000
 6352OM     OM1 6352   6.873   5.554   9.033  0.0000  0.0000  0.0000
 6353OM     OM1 6353   6.995   5.329   8.982  0.0000  0.0000  0.0000
 6354OM     OM1 6354   6.819   9.500   9.345  0.0000  0.0000  0.0000
 6355OM     OM1 6355   6.761   9.260   9.422  0.0000  0.0000  0.0000
 6356OM     OM1 6356   6.797   9.122   8.978  0.0000  0.0000  0.0000
 6357OM     OM1 6357   5.235   8.881   0.096  0.0000  0.0000  0.0000
 6358OM     OM1 6358   1.706   7.634   0.224  0.0000  0.0000  0.0000
 6359OM     OM1 6359   1.826   7.581   0.456  0.0000  0.0000  0.0000
 6360OM     OM1 6360   0.931   4.315   8.952  0.0000  0.0000  0.0000
 6361OM     OM1 6361   0.890   4.283   8.645  0.0000  0.0000  0.0000
 6362OM     OM1 6362   1.046   4.540   8.932  0.0000  0.0000  0.0000
 6363OM     OM1 6363   0.830   4.486   8.784  0.0000  0.0000  0.0000
 6364OM     OM1 6364   6.122   5.047   8.396  0.0000  0.0000  0.0000
 6365OM     OM1 6365   5.920   5.155   8.533  0.0000  0.0000  0.0000
 6366OM     OM1 6366   5.889   4.921   8.431  0.0000  0.0000  0.0000
 6367OM     OM1 6367   6.059   4.940   8.619  0.0000  0.0000  0.0000
 6368OM     OM1 6368   3.619   7.991   8.665  0.0000  0.0000  0.0000
 6369OM     OM1 6369   3.691   8.226   8.615  0.0000  0.0000  0.0000
 6370OM     OM1 6370   3.768   8.111   8.853  0.0000  0.0000  0.0000
 6371OM     OM1 6371   7.386   6.831   9.057  0.0000  0.0000  0.0000
 6372OM     OM1 6372   7.569   7.019   9.038  0.0000  0.0000  0.0000
 6373OM     OM1 6373   7.484   6.886   8.825  0.0000  0.0000  0.0000
 6374OM     OM1 6374   6.526   7.586   9.559  0.0000  0.0000  0.0000
 6375OM     OM1 6375   6.762   7.581   9.455  0.0000  0.0000  0.0000
 6376OM     OM1 6376   3.349   5.152   0.897  0.0000  0.0000  0.0000
 6377OM     OM1 6377   3.103   5.228   0.857  0.0000  0.0000  0.0000
 6378OM     OM1 6378   7.151   8.361   8.416  0.0000  0.0000  0.0000
 6379OM     OM1 6379   7.220   8.522   8.228  0.0000  0.0000  0.0000
 6380OM     OM1 6380   7.349   8.296   8.262  0.0000  0.0000  0.0000
 6381OM     OM1 6381   4.555   1.112   0.242  0.0000  0.0000  0.0000
 6382OM     OM1 6382   5.472   0.508   8.376  0.0000  0.0000  0.0000
 6383OM     OM1 6383   1.749   5.432   8.275  0.0000  0.0000  0.0000
 6384OM     OM1 6384   1.943   5.603   8.289  0.0000  0.0000  0.0000
 6385OM     OM1 6385   7.200   3.499   8.312  0.0000  0.0000  0.0000
 6386OM     OM1 6386   7.268   3.735   8.232  0.0000  0.0000  0.0000
 6387OM     OM1 6387   4.259   2.493   0.252  0.0000  0.0000  0.0000
 6388OM     OM1 6388   4.311   2.335   0.052  0.0000  0.0000  0.0000
 6389OM     OM1 6389   4.500   2.499   0.121  0.0000  0.0000  0.0000
 6390OM     OM1 6390   4.434   2.302   0.275  0.0000  0.0000  0.0000
 6391OM     OM1 6391   9.371   1.004   0.034  0.0000  0.0000  0.0000
 6392OM     OM1 6392   9.551   0.890   9.501  0.0000  0.0000  0.0000
 6393OM     OM1 6393   9.450   1.107   9.405  0.0000  0.0000  0.0000
 6394OM     OM1 6394   9.294   0.902   9.412  0.0000  0.0000  0.0000
 6395OM     OM1 6395   5.087   0.609   1.134  0.0000  0.0000  0.0000
 6396OM     OM1 6396   5.269   0.549   1.296  0.0000  0.0000  0.0000
 6397OM     OM1 6397   5.140   0.354   1.179  0.0000  0.0000  0.0000
 6398OM     OM1 6398   1.453   5.840   9.547  0.0000  0.0000  0.0000
 6399OM     OM1 6399   1.667   5.781   9.414  0.0000  0.0000  0.0000
 6400OM     OM1 6400   1.266   5.653   0.005  0.0000  0.0000  0.0000
 6401OM     OM1 6401   8.578   8.650   8.826  0.0000  0.0000  0.0000
 6402OM     OM1 6402   8.195   8.553   8.960  0.0000  0.0000  0.0000
 6403OM     OM1 6403   8.185   8.624   8.725  0.0000  0.0000  0.0000
 6404OM     OM1 6404   7.496   8.857   8.462  0.0000  0.0000  0.0000
 6405OM     OM1 6405   7.519   9.122   8.513  0.0000  0.0000  0.0000
 6406OM     OM1 6406   7.726   8.961   8.512  0.0000  0.0000  0.0000
 6407OM     OM1 6407   1.789   3.470   8.645  0.0000  0.0000  0.0000
 6408OM     OM1 6408   1.586   3.308   8.667  0.0000  0.0000  0.0000
 6409OM     OM1 6409   0.053   0.822   0.125  0.0000  0.0000  0.0000
 6410OM     OM1 6410   5.850   8.919   0.557  0.0000  0.0000  0.0000
 6411OM     OM1 6411   5.664   8.882   0.380  0.0000  0.0000  0.0000
 6412OM     OM1 6412   7.203   2.322   8.957  0.0000  0.0000  0.0000
 6413OM     OM1 6413   7.223   2.440   8.724  0.0000  0.0000  0.0000
 6414OM     OM1 6414   7.439   2.400   8.866  0.0000  0.0000  0.0000
 6415OM     OM1 6415   7.646   2.378   8.417  0.0000  0.0000  0.0000
 6416OM     OM1 6416   2.050   0.567   1.016  0.0000  0.0000  0.0000
 6417OM     OM1 6417   2.333   0.314   1.184  0.0000  0.0000  0.0000
 6418OM     OM1 6418   2.269   0.428   0.965  0.0000  0.0000  0.0000
 6419OM     OM1 6419   0.870   1.566   0.059  0.0000  0.0000  0.0000
 6420OM     OM1 6420   0.804   1.671   9.425  0.0000  0.0000  0.0000
 6421OM     OM1 6421   0.991   3.755   9.396  0.0000  0.0000  0.0000
 6422OM     OM1 6422   1.243   3.755   9.352  0.0000  0.0000  0.0000
 6423OM     OM1 6423   2.226   4.956   8.431  0.0000  0.0000  0.0000
 6424OM     OM1 6424   6.303   2.369   1.041  0.0000  0.0000  0.0000
 6425OM     OM1 6425   6.070   2.397   1.156  0.0000  0.0000  0.0000
 6426OM     OM1 6426   6.085   2.233   0.960  0.0000  0.0000  0.0000
 6427OM     OM1 6427   6.211   2.189   1.196  0.0000  0.0000  0.0000
 6428OM     OM1 6428   2.649   9.221   9.291  0.0000  0.0000  0.0000
 6429OM     OM1 6429   2.697   9.025   9.442  0.0000  0.0000  0.0000
 6430OM     OM1 6430   8.099   7.645   0.343  0.0000  0.0000  0.0000
 6431OM     OM1 6431   8.209   7.859   0.463  0.0000  0.0000  0.0000
 6432OM     OM1 6432   3.500   9.045   0.171  0.0000  0.0000  0.0000
 6433OM     OM1 6433   3.321   9.231   0.169  0.0000  0.0000  0.0000
 6434OM     OM1 6434   7.800   8.782   8.684  0.0000  0.0000  0.0000
 6435OM     OM1 6435   7.975   8.949   8.595  0.0000  0.0000  0.0000
 6436OM     OM1 6436   7.779   9.040   8.748  0.0000  0.0000  0.0000
 6437OM     OM1 6437   8.236   8.934   8.542  0.0000  0.0000  0.0000
 6438OM     OM1 6438   6.010   5.174   9.346  0.0000  0.0000  0.0000
 6439OM     OM1 6439   5.910   5.384   9.227  0.0000  0.0000  0.0000
 6440OM     OM1 6440   7.077   2.791   8.262  0.0000  0.0000  0.0000
 6441OM     OM1 6441   7.180   2.991   8.402  0.0000  0.0000  0.0000
 6442OM     OM1 6442   6.994   2.850   8.503  0.0000  0.0000  0.0000
 6443OM     OM1 6443   6.199   8.420   1.000  0.0000  0.0000  0.0000
 6444OM     OM1 6444   6.146   8.612   0.821  0.0000  0.0000  0.0000
 6445OM     OM1 6445   6.232   8.362   0.750  0.0000  0.0000  0.0000
 6446OM     OM1 6446   5.995   8.404   0.832  0.0000  0.0000  0.0000
 6447OM     OM1 6447   1.291   6.391   1.001  0.0000  0.0000  0.0000
 6448OM     OM1 6448   1.138   6.409   1.207  0.0000  0.0000  0.0000
 6449OM     OM1 6449   1.400   6.338   1.218  0.0000  0.0000  0.0000
 6450OM     OM1 6450   6.403   3.130   0.894  0.0000  0.0000  0.0000
 6451OM     OM1 6451   6.598   3.190   1.069  0.0000  0.0000  0.0000
 6452OM     OM1 6452   6.386   3.323   1.067  0.0000  0.0000  0.0000
 6453OM     OM1 6453   3.360   5.849   8.878  0.0000  0.0000  0.0000
 6454OM     OM1 6454   3.402   6.091   8.839  0.0000  0.0000  0.0000
 6455OM     OM1 6455   3.612   5.947   8.886  0.0000  0.0000  0.0000
 6456OM     OM1 6456   1.746   2.325   0.447  0.0000  0.0000  0.0000
 6457OM     OM1 6457   1.722   2.590   0.486  0.0000  0.0000  0.0000
 6458OM     OM1 6458   1.523   2.416   0.535  0.0000  0.0000  0.0000
 6459OM     OM1 6459   1.744   2.427   0.682  0.0000  0.0000  0.0000
 6460OM     OM1 6460   4.027   0.841   8.712  0.0000  0.0000  0.0000
 6461OM     OM1 6461   3.894   0.719   8.882  0.0000  0.0000  0.0000
 6462OM     OM1 6462   4.140   0.813   8.949  0.0000  0.0000  0.0000
 6463OM     OM1 6463   4.108   0.607   8.802  0.0000  0.0000  0.0000
 6464OM     OM1 6464   3.160   2.612   0.664  0.0000  0.0000  0.0000
 6465OM     OM1 6465   3.314   2.453   0.498  0.0000  0.0000  0.0000
 6466OM     OM1 6466   3.168   2.642   0.420  0.0000  0.0000  0.0000
 6467OM     OM1 6467   7.694   3.654   8.451  0.0000  0.0000  0.0000
 6468OM     OM1 6468   7.053   3.151   9.292  0.0000  0.0000  0.0000
 6469OM     OM1 6469   6.950   2.865   9.069  0.0000  0.0000  0.0000
 6470OM     OM1 6470   7.135   2.974   9.465  0.0000  0.0000  0.0000
 6471OM     OM1 6471   7.121   6.432   9.108  0.0000  0.0000  0.0000
 6472OM     OM1 6472   6.932   6.296   9.227  0.0000  0.0000  0.0000
 6473OM     OM1 6473   3.706   7.309   0.708  0.0000  0.0000  0.0000
 6474OM     OM1 6474   3.859   7.432   0.870  0.0000  0.0000  0.0000
 6475OM     OM1 6475   3.593   7.467   0.894  0.0000  0.0000  0.0000
 6476OM     OM1 6476   4.991   2.759   9.466  0.0000  0.0000  0.0000
 6477OM     OM1 6477   4.810   2.921   9.394  0.0000  0.0000  0.0000
 6478OM     OM1 6478   4.936   2.973   0.016  0.0000  0.0000  0.0000
 6479OM     OM1 6479   2.833   6.590   9.522  0.0000  0.0000  0.0000
 6480OM     OM1 6480   3.035   9.530   1.042  0.0000  0.0000  0.0000
 6481OM     OM1 6481   3.056   9.272   1.058  0.0000  0.0000  0.0000
 6482OM     OM1 6482   2.922   9.367   0.864  0.0000  0.0000  0.0000
 6483OM     OM1 6483   1.678   6.531   9.267  0.0000  0.0000  0.0000
 6484OM     OM1 6484   1.864   6.359   9.277  0.0000  0.0000  0.0000
 6485OM     OM1 6485   1.916   6.624   9.237  0.0000  0.0000  0.0000
 6486OM     OM1 6486   1.462   8.415   1.303  0.0000  0.0000  0.0000
 6487OM     OM1 6487   1.413   8.285   1.085  0.0000  0.0000  0.0000
 6488OM     OM1 6488   1.643   8.183   1.124  0.0000  0.0000  0.0000
 6489OM     OM1 6489   6.567   6.605   8.416  0.0000  0.0000  0.0000
 6490OM     OM1 6490   5.094   2.246   0.989  0.0000  0.0000  0.0000
 6491OM     OM1 6491   4.854   2.343   0.949  0.0000  0.0000  0.0000
 6492OM     OM1 6492   4.947   1.998   1.301  0.0000  0.0000  0.0000
 6493OM     OM1 6493   7.546   3.611   0.812  0.0000  0.0000  0.0000
 6494OM     OM1 6494   7.503   3.698   1.052  0.0000  0.0000  0.0000
 6495OM     OM1 6495   7.660   3.836   0.911  0.0000  0.0000  0.0000
 6496OM     OM1 6496   7.742   3.608   0.993  0.0000  0.0000  0.0000
 6497OM     OM1 6497   3.451   8.795   8.478  0.0000  0.0000  0.0000
 6498OM     OM1 6498   3.608   8.993   8.552  0.0000  0.0000  0.0000
 6499OM     OM1 6499   3.402   8.903   8.703  0.0000  0.0000  0.0000
 6500OM     OM1 6500   3.367   9.048   8.491  0.0000  0.0000  0.0000
 6501OM     OM1 6501   6.752   0.855   8.766  0.0000  0.0000  0.0000
 6502OM     OM1 6502   6.515   0.932   8.838  0.0000  0.0000  0.0000
 6503OM     OM1 6503   4.922   9.065   0.511  0.0000  0.0000  0.0000
 6504OM     OM1 6504   5.108   8.890   0.471  0.0000  0.0000  0.0000
 6505OM     OM1 6505   7.314   4.636   9.433  0.0000  0.0000  0.0000
 6506OM     OM1 6506   7.554   4.733   9.353  0.0000  0.0000  0.0000
 6507OM     OM1 6507   8.220   0.381   8.607  0.0000  0.0000  0.0000
 6508OM     OM1 6508   0.720   2.463   9.099  0.0000  0.0000  0.0000
 6509OM     OM1 6509   0.830   2.338   9.296  0.0000  0.0000  0.0000
 6510OM     OM1 6510   0.602   2.459   9.327  0.0000  0.0000  0.0000
 6511OM     OM1 6511   0.830   2.595   9.305  0.0000  0.0000  0.0000
 6512OM     OM1 6512   3.980   8.110   0.307  0.0000  0.0000  0.0000
 6513OM     OM1 6513   1.927   9.318   0.844  0.0000  0.0000  0.0000
 6514OM     OM1 6514   2.159   9.259   0.971  0.0000  0.0000  0.0000
 6515OM     OM1 6515   5.134   6.061   1.128  0.0000  0.0000  0.0000
 6516OM     OM1 6516   5.105   6.048   0.880  0.0000  0.0000  0.0000
 6517OM     OM1 6517   2.213   1.133   8.357  0.0000  0.0000  0.0000
 6518OM     OM1 6518   2.100   1.268   8.551  0.0000  0.0000  0.0000
 6519OM     OM1 6519   2.462   1.110   8.289  0.0000  0.0000  0.0000
 6520OM     OM1 6520   6.656   6.656   0.132  0.0000  0.0000  0.0000
 6521OM     OM1 6521   6.786   6.676   9.516  0.0000  0.0000  0.0000
 6522OM     OM1 6522   7.098   2.387   1.047  0.0000  0.0000  0.0000
 6523OM     OM1 6523   7.108   2.141   0.924  0.0000  0.0000  0.0000
 6524OM     OM1 6524   6.906   2.298   0.909  0.0000  0.0000  0.0000
 6525OM     OM1 6525   0.702   4.673   8.369  0.0000  0.0000  0.0000
 6526OM     OM1 6526   6.953   0.374   1.157  0.0000  0.0000  0.0000
 6527OM     OM1 6527   0.813   5.667   9.256  0.0000  0.0000  0.0000
 6528OM     OM1 6528   0.698   5.631   9.024  0.0000  0.0000  0.0000
 6529OM     OM1 6529   0.621   5.821   9.172  0.0000  0.0000  0.0000
 6530OM     OM1 6530   6.646   5.660   9.075  0.0000  0.0000  0.0000
 6531OM     OM1 6531   6.491   5.860   9.102  0.0000  0.0000  0.0000
 6532OM     OM1 6532   6.778   2.382   8.538  0.0000  0.0000  0.0000
 6533OM     OM1 6533   6.869   2.164   8.442  0.0000  0.0000  0.0000
 6534OM     OM1 6534   6.956   2.234   8.672  0.0000  0.0000  0.0000
 6535OM     OM1 6535   7.025   2.374   8.461  0.0000  0.0000  0.0000
 6536OM     OM1 6536   0.219   1.641   0.589  0.0000  0.0000  0.0000
 6537OM     OM1 6537   0.172   1.426   0.739  0.0000  0.0000  0.0000
 6538OM     OM1 6538   8.794   4.837   1.301  0.0000  0.0000  0.0000
 6539OM     OM1 6539   8.849   4.636   1.139  0.0000  0.0000  0.0000
 6540OM     OM1 6540   3.311   3.162   9.444  0.0000  0.0000  0.0000
 6541OM     OM1 6541   3.242   3.214   9.195  0.0000  0.0000  0.0000
 6542OM     OM1 6542   3.501   3.208   9.267  0.0000  0.0000  0.0000
 6543OM     OM1 6543   3.349   3.402   9.331  0.0000  0.0000  0.0000
 6544OM     OM1 6544   0.092   3.793   0.668  0.0000  0.0000  0.0000
 6545OM     OM1 6545   0.061   3.998   0.530  0.0000  0.0000  0.0000
 6546OM     OM1 6546   0.279   4.010   0.663  0.0000  0.0000  0.0000
 6547OM     OM1 6547   4.984   7.663   8.581  0.0000  0.0000  0.0000
 6548OM     OM1 6548   4.776   7.776   8.676  0.0000  0.0000  0.0000
 6549OM     OM1 6549   5.002   7.919   8.638  0.0000  0.0000  0.0000
 6550OM     OM1 6550   5.060   5.992   0.110  0.0000  0.0000  0.0000
 6551OM     OM1 6551   5.175   6.199   0.203  0.0000  0.0000  0.0000
 6552OM     OM1 6552   4.973   6.182   0.368  0.0000  0.0000  0.0000
 6553OM     OM1 6553   3.129   5.790   9.440  0.0000  0.0000  0.0000
 6554OM     OM1 6554   2.974   5.719   0.040  0.0000  0.0000  0.0000
 6555OM     OM1 6555   0.138   8.667   0.671  0.0000  0.0000  0.0000
 6556OM     OM1 6556   6.299   0.394   1.029  0.0000  0.0000  0.0000
 6557OM     OM1 6557   6.116   0.205   1.098  0.0000  0.0000  0.0000
 6558OM     OM1 6558   8.047   1.047   1.317  0.0000  0.0000  0.0000
 6559OM     OM1 6559   7.423   8.542   0.803  0.0000  0.0000  0.0000
 6560OM     OM1 6560   7.466   8.602   1.052  0.0000  0.0000  0.0000
 6561OM     OM1 6561   7.472   8.349   0.986  0.0000  0.0000  0.0000
 6562OM     OM1 6562   7.660   8.509   0.905  0.0000  0.0000  0.0000
 6563OM     OM1 6563   2.076   3.036   0.847  0.0000  0.0000  0.0000
 6564OM     OM1 6564   2.319   2.951   0.793  0.0000  0.0000  0.0000
 6565OM     OM1 6565   2.114   2.835   0.685  0.0000  0.0000  0.0000
 6566OM     OM1 6566   2.532   3.230   8.526  0.0000  0.0000  0.0000
 6567OM     OM1 6567   2.675   3.053   8.388  0.0000  0.0000  0.0000
 6568OM     OM1 6568   2.414   3.108   8.330  0.0000  0.0000  0.0000
 6569OM     OM1 6569   2.429   1.643   1.200  0.0000  0.0000  0.0000
 6570OM     OM1 6570   2.678   1.722   1.131  0.0000  0.0000  0.0000
 6571OM     OM1 6571   6.322   1.119   0.861  0.0000  0.0000  0.0000
 6572OM     OM1 6572   1.445   7.415   8.292  0.0000  0.0000  0.0000
 6573OM     OM1 6573   1.421   7.253   8.506  0.0000  0.0000  0.0000
 6574OM     OM1 6574   1.594   7.645   8.347  0.0000  0.0000  0.0000
 6575OM     OM1 6575   2.548   9.482   0.540  0.0000  0.0000  0.0000
 6576OM     OM1 6576   2.484   0.019   0.329  0.0000  0.0000  0.0000
 6577OM     OM1 6577   2.704   0.068   0.452  0.0000  0.0000  0.0000
 6578OM     OM1 6578   9.542   5.138   8.918  0.0000  0.0000  0.0000
 6579OM     OM1 6579   0.002   5.362   9.025  0.0000  0.0000  0.0000
 6580OM     OM1 6580   0.181   5.200   8.923  0.0000  0.0000  0.0000
 6581OM     OM1 6581   7.918   8.229   8.339  0.0000  0.0000  0.0000
 6582OM     OM1 6582   8.550   9.160   8.826  0.0000  0.0000  0.0000
 6583OM     OM1 6583   8.702   9.077   9.019  0.0000  0.0000  0.0000
 6584OM     OM1 6584   8.766   9.015   8.784  0.0000  0.0000  0.0000
 6585OM     OM1 6585   8.556   8.903   8.881  0.0000  0.0000  0.0000
 6586OM     OM1 6586   4.529   6.197   0.193  0.0000  0.0000  0.0000
 6587OM     OM1 6587   4.726   6.283   0.345  0.0000  0.0000  0.0000
 6588OM     OM1 6588   6.034   5.553   0.588  0.0000  0.0000  0.0000
 6589OM     OM1 6589   6.177   5.615   0.792  0.0000  0.0000  0.0000
 6590OM     OM1 6590   6.014   5.650   0.983  0.0000  0.0000  0.0000
 6591OM     OM1 6591   6.143   5.860   0.903  0.0000  0.0000  0.0000
 6592OM     OM1 6592   2.355   8.968   0.738  0.0000  0.0000  0.0000
 6593OM     OM1 6593   2.361   8.735   0.835  0.0000  0.0000  0.0000
 6594OM     OM1 6594   0.259   0.641   1.202  0.0000  0.0000  0.0000
 6595OM     OM1 6595   0.015   0.556   1.214  0.0000  0.0000  0.0000
 6596OM     OM1 6596   0.177   0.475   1.017  0.0000  0.0000  0.0000
 6597OM     OM1 6597   0.920   4.356   0.037  0.0000  0.0000  0.0000
 6598OM     OM1 6598   0.910   4.627   0.049  0.0000  0.0000  0.0000
 6599OM     OM1 6599   1.030   4.495   0.225  0.0000  0.0000  0.0000
 6600OM     OM1 6600   7.346   8.822   1.143  0.0000  0.0000  0.0000
 6601OM     OM1 6601   7.605   8.805   1.141  0.0000  0.0000  0.0000
 6602OM     OM1 6602   3.611   1.785   9.435  0.0000  0.0000  0.0000
 6603OM     OM1 6603   3.677   1.660   0.039  0.0000  0.0000  0.0000
 6604OM     OM1 6604   3.439   1.769   0.029  0.0000  0.0000  0.0000
 6605OM     OM1 6605   3.500   1.555   9.489  0.0000  0.0000  0.0000
 6606OM     OM1 6606   2.936   6.830   0.501  0.0000  0.0000  0.0000
 6607OM     OM1 6607   2.822   7.071   0.573  0.0000  0.0000  0.0000
 6608OM     OM1 6608   3.737   1.041   9.078  0.0000  0.0000  0.0000
 6609OM     OM1 6609   3.634   0.850   9.234  0.0000  0.0000  0.0000
 6610OM     OM1 6610   3.872   0.827   9.145  0.0000  0.0000  0.0000
 6611OM     OM1 6611   3.676   0.807   8.982  0.0000  0.0000  0.0000
 6612OM     OM1 6612   0.872   2.603   0.767  0.0000  0.0000  0.0000
 6613OM     OM1 6613   0.979   2.427   0.928  0.0000  0.0000  0.0000
 6614OM     OM1 6614   1.072   2.653   0.940  0.0000  0.0000  0.0000
 6615OM     OM1 6615   6.142   5.687   1.247  0.0000  0.0000  0.0000
 6616OM     OM1 6616   6.269   5.670   1.033  0.0000  0.0000  0.0000
 6617OM     OM1 6617   6.215   5.455   1.171  0.0000  0.0000  0.0000
 6618OM     OM1 6618   9.169   6.846   0.178  0.0000  0.0000  0.0000
 6619OM     OM1 6619   9.082   7.081   0.233  0.0000  0.0000  0.0000
 6620OM     OM1 6620   0.730   0.876   8.789  0.0000  0.0000  0.0000
 6621OM     OM1 6621   0.715   0.926   8.529  0.0000  0.0000  0.0000
 6622OM     OM1 6622   0.657   1.068   8.930  0.0000  0.0000  0.0000
 6623OM     OM1 6623   7.179   7.210   0.692  0.0000  0.0000  0.0000
 6624OM     OM1 6624   7.162   7.336   0.456  0.0000  0.0000  0.0000
 6625OM     OM1 6625   7.809   3.852   9.010  0.0000  0.0000  0.0000
 6626OM     OM1 6626   7.917   4.089   8.976  0.0000  0.0000  0.0000
 6627OM     OM1 6627   7.681   4.045   8.881  0.0000  0.0000  0.0000
 6628OM     OM1 6628   7.714   4.063   9.137  0.0000  0.0000  0.0000
 6629OM     OM1 6629   3.784   3.293   0.257  0.0000  0.0000  0.0000
 6630OM     OM1 6630   3.688   3.135   0.088  0.0000  0.0000  0.0000
 6631OM     OM1 6631   3.240   5.714   8.696  0.0000  0.0000  0.0000
 6632OM     OM1 6632   3.311   5.573   8.487  0.0000  0.0000  0.0000
 6633OM     OM1 6633   2.566   9.236   8.803  0.0000  0.0000  0.0000
 6634OM     OM1 6634   2.583   8.982   8.773  0.0000  0.0000  0.0000
 6635OM     OM1 6635   2.479   9.066   8.992  0.0000  0.0000  0.0000
 6636OM     OM1 6636   4.409   6.697   1.072  0.0000  0.0000  0.0000
 6637OM     OM1 6637   4.298   6.505   0.926  0.0000  0.0000  0.0000
 6638OM     OM1 6638   4.254   6.515   1.182  0.0000  0.0000  0.0000
 6639OM     OM1 6639   1.069   6.732   8.290  0.0000  0.0000  0.0000
 6640OM     OM1 6640   4.362   3.542   1.026  0.0000  0.0000  0.0000
 6641OM     OM1 6641   4.245   3.306   1.057  0.0000  0.0000  0.0000
 6642OM     OM1 6642   4.288   3.469   1.267  0.0000  0.0000  0.0000
 6643OM     OM1 6643   1.265   6.037   8.306  0.0000  0.0000  0.0000
 6644OM     OM1 6644   4.899   0.020   8.449  0.0000  0.0000  0.0000
 6645OM     OM1 6645   5.129   0.116   8.518  0.0000  0.0000  0.0000
 6646OM     OM1 6646   4.971   0.243   8.339  0.0000  0.0000  0.0000
 6647OM     OM1 6647   6.171   9.559   1.085  0.0000  0.0000  0.0000
 6648OM     OM1 6648   4.616   1.519   8.435  0.0000  0.0000  0.0000
 6649OM     OM1 6649   4.384   1.602   8.375  0.0000  0.0000  0.0000
 6650OM     OM1 6650   4.583   1.756   8.311  0.0000  0.0000  0.0000
 6651OM     OM1 6651   2.518   2.812   0.436  0.0000  0.0000  0.0000
 6652OM     OM1 6652   2.630   2.601   0.320  0.0000  0.0000  0.0000
 6653OM     OM1 6653   2.376   2.601   0.377  0.0000  0.0000  0.0000
 6654OM     OM1 6654   2.473   2.756   0.189  0.0000  0.0000  0.0000
 6655OM     OM1 6655   3.288   2.950   8.575  0.0000  0.0000  0.0000
 6656OM     OM1 6656   3.265   2.704   8.664  0.0000  0.0000  0.0000
 6657OM     OM1 6657   3.324   2.910   8.824  0.0000  0.0000  0.0000
 6658OM     OM1 6658   1.522   5.324   8.272  0.0000  0.0000  0.0000
 6659OM     OM1 6659   6.724   2.132   0.111  0.0000  0.0000  0.0000
 6660OM     OM1 6660   6.518   2.287   0.184  0.0000  0.0000  0.0000
 6661OM     OM1 6661   6.691   2.203   0.353  0.0000  0.0000  0.0000
 6662OM     OM1 6662   5.188   3.305   0.266  0.0000  0.0000  0.0000
 6663OM     OM1 6663   5.184   3.327   0.546  0.0000  0.0000  0.0000
 6664OM     OM1 6664   7.093   2.531   8.261  0.0000  0.0000  0.0000
 6665OM     OM1 6665   7.242   2.507   8.475  0.0000  0.0000  0.0000
 6666OM     OM1 6666   3.493   6.272   8.338  0.0000  0.0000  0.0000
 6667OM     OM1 6667   3.444   6.200   8.596  0.0000  0.0000  0.0000
 6668OM     OM1 6668   2.730   1.601   9.134  0.0000  0.0000  0.0000
 6669OM     OM1 6669   2.945   1.648   9.275  0.0000  0.0000  0.0000
 6670OM     OM1 6670   2.913   1.762   9.044  0.0000  0.0000  0.0000
 6671OM     OM1 6671   1.675   2.834   0.554  0.0000  0.0000  0.0000
 6672OM     OM1 6672   1.920   2.769   0.519  0.0000  0.0000  0.0000
 6673OM     OM1 6673   1.034   5.244   0.681  0.0000  0.0000  0.0000
 6674OM     OM1 6674   1.236   5.298   0.824  0.0000  0.0000  0.0000
 6675OM     OM1 6675   1.106   5.064   0.857  0.0000  0.0000  0.0000
 6676OM     OM1 6676   8.643   4.534   0.305  0.0000  0.0000  0.0000
 6677OM     OM1 6677   8.618   4.267   0.294  0.0000  0.0000  0.0000
 6678OM     OM1 6678   8.786   4.410   0.138  0.0000  0.0000  0.0000
 6679OM     OM1 6679   3.238   6.680   8.649  0.0000  0.0000  0.0000
 6680OM     OM1 6680   3.488   6.637   8.671  0.0000  0.0000  0.0000
 6681OM     OM1 6681   3.313   6.557   8.860  0.0000  0.0000  0.0000
 6682OM     OM1 6682   3.378   6.806   8.832  0.0000  0.0000  0.0000
 6683OM     OM1 6683   3.742   3.526   0.912  0.0000  0.0000  0.0000
 6684OM     OM1 6684   0.871   8.969   9.456  0.0000  0.0000  0.0000
 6685OM     OM1 6685   7.690   3.615   8.974  0.0000  0.0000  0.0000
 6686OM     OM1 6686   7.608   3.412   9.097  0.0000  0.0000  0.0000
 6687OM     OM1 6687   0.365   0.127   9.334  0.0000  0.0000  0.0000
 6688OM     OM1 6688   4.529   7.877   9.411  0.0000  0.0000  0.0000
 6689OM     OM1 6689   4.363   7.744   9.258  0.0000  0.0000  0.0000
 6690OM     OM1 6690   4.388   8.009   9.241  0.0000  0.0000  0.0000
 6691OM     OM1 6691   9.058   9.479   1.120  0.0000  0.0000  0.0000
 6692OM     OM1 6692   8.935   9.324   0.957  0.0000  0.0000  0.0000
 6693OM     OM1 6693   9.000   9.579   0.891  0.0000  0.0000  0.0000
 6694OM     OM1 6694   8.799   9.513   1.042  0.0000  0.0000  0.0000
 6695OM     OM1 6695   2.404   4.751   0.998  0.0000  0.0000  0.0000
 6696OM     OM1 6696   2.535   4.605   0.823  0.0000  0.0000  0.0000
 6697OM     OM1 6697   2.289   4.531   0.907  0.0000  0.0000  0.0000
 6698OM     OM1 6698   2.495   4.515   1.063  0.0000  0.0000  0.0000
 6699OM     OM1 6699   1.166   0.813   0.508  0.0000  0.0000  0.0000
 6700OM     OM1 6700   0.911   0.803   0.447  0.0000  0.0000  0.0000
 6701OM     OM1 6701   1.021   1.020   0.559  0.0000  0.0000  0.0000
 6702OM     OM1 6702   0.977   0.810   0.697  0.0000  0.0000  0.0000
 6703OM     OM1 6703   3.293   7.373   0.062  0.0000  0.0000  0.0000
 6704OM     OM1 6704   3.338   7.579   0.213  0.0000  0.0000  0.0000
 6705OM     OM1 6705   3.437   2.199   0.962  0.0000  0.0000  0.0000
 6706OM     OM1 6706   3.215   2.194   0.823  0.0000  0.0000  0.0000
 6707OM     OM1 6707   3.185   4.509   0.519  0.0000  0.0000  0.0000
 6708OM     OM1 6708   3.087   4.286   0.618  0.0000  0.0000  0.0000
 6709OM     OM1 6709   0.677   3.190   1.094  0.0000  0.0000  0.0000
 6710OM     OM1 6710   0.562   2.979   1.022  0.0000  0.0000  0.0000
 6711OM     OM1 6711   7.353   2.386   9.356  0.0000  0.0000  0.0000
 6712OM     OM1 6712   9.210   2.314   8.962  0.0000  0.0000  0.0000
 6713OM     OM1 6713   9.046   2.445   9.116  0.0000  0.0000  0.0000
 6714OM     OM1 6714   9.002   2.196   9.082  0.0000  0.0000  0.0000
 6715OM     OM1 6715   9.212   2.265   9.223  0.0000  0.0000  0.0000
 6716OM     OM1 6716   7.453   3.632   0.060  0.0000  0.0000  0.0000
 6717OM     OM1 6717   6.501   0.385   0.456  0.0000  0.0000  0.0000
 6718OM     OM1 6718   6.727   0.377   0.586  0.0000  0.0000  0.0000
 6719OM     OM1 6719   6.594   0.157   0.554  0.0000  0.0000  0.0000
 6720OM     OM1 6720   6.716   0.274   0.352  0.0000  0.0000  0.0000
 6721OM     OM1 6721   4.889   4.776   8.412  0.0000  0.0000  0.0000
 6722OM     OM1 6722   4.692   4.957   8.411  0.0000  0.0000  0.0000
 6723OM     OM1 6723   4.682   4.734   8.559  0.0000  0.0000  0.0000
 6724OM     OM1 6724   2.524   8.610   0.675  0.0000  0.0000  0.0000
 6725OM     OM1 6725   7.325   7.492   8.386  0.0000  0.0000  0.0000
 6726OM     OM1 6726   3.095   7.778   8.375  0.0000  0.0000  0.0000
 6727OM     OM1 6727   4.684   6.074   9.321  0.0000  0.0000  0.0000
 6728OM     OM1 6728   4.812   5.872   9.420  0.0000  0.0000  0.0000
 6729OM     OM1 6729   2.742   1.566   0.582  0.0000  0.0000  0.0000
 6730OM     OM1 6730   2.599   1.373   0.704  0.0000  0.0000  0.0000
 6731OM     OM1 6731   2.833   1.326   0.616  0.0000  0.0000  0.0000
 6732OM     OM1 6732   3.320   0.948   0.866  0.0000  0.0000  0.0000
 6733OM     OM1 6733   3.155   0.921   1.074  0.0000  0.0000  0.0000
 6734OM     OM1 6734   6.894   6.057   8.443  0.0000  0.0000  0.0000
 6735OM     OM1 6735   7.096   5.904   8.344  0.0000  0.0000  0.0000
 6736OM     OM1 6736   3.877   8.796   0.988  0.0000  0.0000  0.0000
 6737OM     OM1 6737   4.082   9.079   1.292  0.0000  0.0000  0.0000
 6738OM     OM1 6738   8.267   1.220   0.167  0.0000  0.0000  0.0000
 6739OM     OM1 6739   8.516   1.286   0.166  0.0000  0.0000  0.0000
 6740OM     OM1 6740   8.420   1.212   9.548  0.0000  0.0000  0.0000
 6741OM     OM1 6741   1.566   5.925   1.296  0.0000  0.0000  0.0000
 6742OM     OM1 6742   1.507   6.120   1.125  0.0000  0.0000  0.0000
 6743OM     OM1 6743   3.147   7.430   0.740  0.0000  0.0000  0.0000
 6744OM     OM1 6744   3.374   7.347   0.827  0.0000  0.0000  0.0000
 6745OM     OM1 6745   3.297   7.281   0.581  0.0000  0.0000  0.0000
 6746OM     OM1 6746   7.162   2.601   1.184  0.0000  0.0000  0.0000
 6747OM     OM1 6747   7.242   2.555   0.920  0.0000  0.0000  0.0000
 6748OM     OM1 6748   1.774   6.968   0.818  0.0000  0.0000  0.0000
 6749OM     OM1 6749   1.735   6.728   0.760  0.0000  0.0000  0.0000
 6750OM     OM1 6750   1.751   6.789   1.010  0.0000  0.0000  0.0000
 6751OM     OM1 6751   1.535   6.863   0.888  0.0000  0.0000  0.0000
 6752OM     OM1 6752   0.099   5.154   0.326  0.0000  0.0000  0.0000
 6753OM     OM1 6753   0.082   5.213   0.585  0.0000  0.0000  0.0000
 6754OM     OM1 6754   0.135   5.399   0.409  0.0000  0.0000  0.0000
 6755OM     OM1 6755   9.507   5.295   0.407  0.0000  0.0000  0.0000
 6756OM     OM1 6756   8.383   4.462   1.146  0.0000  0.0000  0.0000
 6757OM     OM1 6757   8.636   4.480   1.125  0.0000  0.0000  0.0000
 6758OM     OM1 6758   6.551   7.751   0.909  0.0000  0.0000  0.0000
 6759OM     OM1 6759   6.997   9.452   1.030  0.0000  0.0000  0.0000
 6760OM     OM1 6760   6.849   9.425   0.828  0.0000  0.0000  0.0000
 6761OM     OM1 6761   6.989   0.043   0.849  0.0000  0.0000  0.0000
 6762OM     OM1 6762   1.582   7.138   9.243  0.0000  0.0000  0.0000
 6763OM     OM1 6763   1.490   6.915   9.124  0.0000  0.0000  0.0000
 6764OM     OM1 6764   1.382   7.009   9.449  0.0000  0.0000  0.0000
 6765OM     OM1 6765   1.851   3.668   8.801  0.0000  0.0000  0.0000
 6766OM     OM1 6766   2.304   3.750   8.869  0.0000  0.0000  0.0000
 6767OM     OM1 6767   2.073   3.643   8.909  0.0000  0.0000  0.0000
 6768OM     OM1 6768   3.619   4.550   0.831  0.0000  0.0000  0.0000
 6769OM     OM1 6769   3.419   4.545   0.638  0.0000  0.0000  0.0000
 6770OM     OM1 6770   3.634   4.672   0.598  0.0000  0.0000  0.0000
 6771OM     OM1 6771   1.762   6.813   8.928  0.0000  0.0000  0.0000
 6772OM     OM1 6772   1.619   6.816   8.716  0.0000  0.0000  0.0000
 6773OM     OM1 6773   1.516   6.735   8.946  0.0000  0.0000  0.0000
 6774OM     OM1 6774   2.216   7.096   0.622  0.0000  0.0000  0.0000
 6775OM     OM1 6775   2.044   7.006   0.800  0.0000  0.0000  0.0000
 6776OM     OM1 6776   2.254   6.865   0.760  0.0000  0.0000  0.0000
 6777OM     OM1 6777   1.407   5.776   0.184  0.0000  0.0000  0.0000
 6778OM     OM1 6778   1.694   5.864   0.054  0.0000  0.0000  0.0000
 6779OM     OM1 6779   1.515   5.603   0.014  0.0000  0.0000  0.0000
 6780OM     OM1 6780   5.161   6.520   9.149  0.0000  0.0000  0.0000
 6781OM     OM1 6781   5.214   6.378   8.942  0.0000  0.0000  0.0000
 6782OM     OM1 6782   5.066   6.173   8.994  0.0000  0.0000  0.0000
 6783OM     OM1 6783   1.089   1.986   1.176  0.0000  0.0000  0.0000
 6784OM     OM1 6784   1.286   1.818   1.178  0.0000  0.0000  0.0000
 6785OM     OM1 6785   0.860   9.269   0.238  0.0000  0.0000  0.0000
 6786OM     OM1 6786   0.599   9.433   0.314  0.0000  0.0000  0.0000
 6787OM     OM1 6787   0.985   9.489   0.359  0.0000  0.0000  0.0000
 6788OM     OM1 6788   7.790   9.146   0.161  0.0000  0.0000  0.0000
 6789OM     OM1 6789   7.647   9.272   0.334  0.0000  0.0000  0.0000
 6790OM     OM1 6790   7.598   9.019   0.292  0.0000  0.0000  0.0000
 6791OM     OM1 6791   8.042   7.037   0.350  0.0000  0.0000  0.0000
 6792OM     OM1 6792   7.865   6.981   0.150  0.0000  0.0000  0.0000
 6793OM     OM1 6793   8.037   6.811   0.219  0.0000  0.0000  0.0000
 6794OM     OM1 6794   2.472   0.409   0.573  0.0000  0.0000  0.0000
 6795OM     OM1 6795   2.519   0.360   0.998  0.0000  0.0000  0.0000
 6796OM     OM1 6796   1.365   1.519   0.237  0.0000  0.0000  0.0000
 6797OM     OM1 6797   1.257   1.728   0.328  0.0000  0.0000  0.0000
 6798OM     OM1 6798   1.472   6.870   0.578  0.0000  0.0000  0.0000
 6799OM     OM1 6799   1.679   6.801   0.423  0.0000  0.0000  0.0000
 6800OM     OM1 6800   1.619   7.048   0.452  0.0000  0.0000  0.0000
 6801OM     OM1 6801   4.124   6.616   9.062  0.0000  0.0000  0.0000
 6802OM     OM1 6802   4.216   6.835   8.947  0.0000  0.0000  0.0000
 6803OM     OM1 6803   4.167   6.826   9.204  0.0000  0.0000  0.0000
 6804OM     OM1 6804   5.450   8.567   8.950  0.0000  0.0000  0.0000
 6805OM     OM1 6805   5.457   8.780   9.118  0.0000  0.0000  0.0000
 6806OM     OM1 6806   5.661   8.639   9.076  0.0000  0.0000  0.0000
 6807OM     OM1 6807   9.143   4.479   0.353  0.0000  0.0000  0.0000
 6808OM     OM1 6808   9.260   4.709   0.421  0.0000  0.0000  0.0000
 6809OM     OM1 6809   9.060   4.695   0.248  0.0000  0.0000  0.0000
 6810OM     OM1 6810   6.215   9.466   8.444  0.0000  0.0000  0.0000
 6811OM     OM1 6811   1.677   1.357   0.618  0.0000  0.0000  0.0000
 6812OM     OM1 6812   2.233   5.118   8.645  0.0000  0.0000  0.0000
 6813OM     OM1 6813   2.039   7.791   8.568  0.0000  0.0000  0.0000
 6814OM     OM1 6814   2.145   7.591   8.700  0.0000  0.0000  0.0000
 6815OM     OM1 6815   5.263   0.694   9.394  0.0000  0.0000  0.0000
 6816OM     OM1 6816   5.099   0.590   9.569  0.0000  0.0000  0.0000
 6817OM     OM1 6817   6.740   0.130   9.466  0.0000  0.0000  0.0000
 6818OM     OM1 6818   6.973   0.092   9.340  0.0000  0.0000  0.0000
 6819OM     OM1 6819   5.475   5.851   0.152  0.0000  0.0000  0.0000
 6820OM     OM1 6820   5.417   5.851   9.503  0.0000  0.0000  0.0000
 6821OM     OM1 6821   5.559   6.050   0.002  0.0000  0.0000  0.0000
 6822OM     OM1 6822   5.304   6.034   0.045  0.0000  0.0000  0.0000
 6823OM     OM1 6823   5.558   9.052   8.476  0.0000  0.0000  0.0000
 6824OM     OM1 6824   5.510   8.802   8.450  0.0000  0.0000  0.0000
 6825OM     OM1 6825   1.384   5.529   8.370  0.0000  0.0000  0.0000
 6826OM     OM1 6826   1.196   5.529   8.541  0.0000  0.0000  0.0000
 6827OM     OM1 6827   1.157   5.638   8.309  0.0000  0.0000  0.0000
 6828OM     OM1 6828   6.750   3.626   9.366  0.0000  0.0000  0.0000
 6829OM     OM1 6829   6.615   3.470   9.513  0.0000  0.0000  0.0000
 6830OM     OM1 6830   6.639   3.407   9.270  0.0000  0.0000  0.0000
 6831OM     OM1 6831   0.636   3.441   9.164  0.0000  0.0000  0.0000
 6832OM     OM1 6832   0.885   3.340   9.176  0.0000  0.0000  0.0000
 6833OM     OM1 6833   6.327   0.978   9.018  0.0000  0.0000  0.0000
 6834OM     OM1 6834   6.450   1.170   8.896  0.0000  0.0000  0.0000
 6835OM     OM1 6835   3.632   1.660   1.235  0.0000  0.0000  0.0000
 6836OM     OM1 6836   3.981   1.568   1.343  0.0000  0.0000  0.0000
 6837OM     OM1 6837   3.840   1.586   1.131  0.0000  0.0000  0.0000
 6838OM     OM1 6838   3.316   0.214   0.932  0.0000  0.0000  0.0000
 6839OM     OM1 6839   3.449   0.295   0.726  0.0000  0.0000  0.0000
 6840OM     OM1 6840   6.537   4.870   9.340  0.0000  0.0000  0.0000
 6841OM     OM1 6841   4.143   6.700   8.743  0.0000  0.0000  0.0000
 6842OM     OM1 6842   4.374   6.800   8.743  0.0000  0.0000  0.0000
 6843OM     OM1 6843   9.045   3.357   8.418  0.0000  0.0000  0.0000
 6844OM     OM1 6844   9.156   3.567   8.526  0.0000  0.0000  0.0000
 6845OM     OM1 6845   2.523   5.076   0.498  0.0000  0.0000  0.0000
 6846OM     OM1 6846   2.402   5.314   0.516  0.0000  0.0000  0.0000
 6847OM     OM1 6847   2.280   5.110   0.422  0.0000  0.0000  0.0000
 6848OM     OM1 6848   2.489   5.224   0.292  0.0000  0.0000  0.0000
 6849OM     OM1 6849   6.857   7.447   0.053  0.0000  0.0000  0.0000
 6850OM     OM1 6850   6.979   7.372   0.269  0.0000  0.0000  0.0000
 6851OM     OM1 6851   6.721   7.302   0.227  0.0000  0.0000  0.0000
 6852OM     OM1 6852   9.183   1.834   0.839  0.0000  0.0000  0.0000
 6853OM     OM1 6853   9.008   1.815   0.637  0.0000  0.0000  0.0000
 6854OM     OM1 6854   8.493   3.820   1.334  0.0000  0.0000  0.0000
 6855OM     OM1 6855   8.580   3.741   1.097  0.0000  0.0000  0.0000
 6856OM     OM1 6856   4.816   1.751   0.105  0.0000  0.0000  0.0000
 6857OM     OM1 6857   5.017   1.855   0.239  0.0000  0.0000  0.0000
 6858OM     OM1 6858   4.798   1.978   0.238  0.0000  0.0000  0.0000
 6859OM     OM1 6859   4.818   1.744   0.367  0.0000  0.0000  0.0000
 6860OM     OM1 6860   3.358   6.202   9.559  0.0000  0.0000  0.0000
 6861OM     OM1 6861   3.841   6.097   9.589  0.0000  0.0000  0.0000
 6862OM     OM1 6862   3.516   6.312   9.375  0.0000  0.0000  0.0000
 6863OM     OM1 6863   4.789   4.893   0.257  0.0000  0.0000  0.0000
 6864OM     OM1 6864   9.122   1.091   9.102  0.0000  0.0000  0.0000
 6865OM     OM1 6865   9.215   1.324   9.019  0.0000  0.0000  0.0000
 6866OM     OM1 6866   9.366   1.177   9.171  0.0000  0.0000  0.0000
 6867OM     OM1 6867   7.782   8.704   0.793  0.0000  0.0000  0.0000
 6868OM     OM1 6868   7.788   8.998   1.156  0.0000  0.0000  0.0000
 6869OM     OM1 6869   7.758   8.931   0.913  0.0000  0.0000  0.0000
 6870OM     OM1 6870   1.196   3.295   0.443  0.0000  0.0000  0.0000
 6871OM     OM1 6871   1.230   3.026   0.359  0.0000  0.0000  0.0000
 6872OM     OM1 6872   9.006   3.295   9.138  0.0000  0.0000  0.0000
 6873OM     OM1 6873   9.154   3.463   9.004  0.0000  0.0000  0.0000
 6874OM     OM1 6874   9.130   3.214   8.927  0.0000  0.0000  0.0000
 6875OM     OM1 6875   2.328   4.455   0.005  0.0000  0.0000  0.0000
 6876OM     OM1 6876   2.278   4.577   9.380  0.0000  0.0000  0.0000
 6877OM     OM1 6877   2.165   4.656   0.010  0.0000  0.0000  0.0000
 6878OM     OM1 6878   3.657   1.878   9.210  0.0000  0.0000  0.0000
 6879OM     OM1 6879   3.543   2.069   9.093  0.0000  0.0000  0.0000
 6880OM     OM1 6880   7.007   8.749   8.783  0.0000  0.0000  0.0000
 6881OM     OM1 6881   6.837   8.550   8.806  0.0000  0.0000  0.0000
 6882OM     OM1 6882   7.092   8.516   8.874  0.0000  0.0000  0.0000
 6883OM     OM1 6883   0.307   3.719   0.811  0.0000  0.0000  0.0000
 6884OM     OM1 6884   0.168   3.550   0.673  0.0000  0.0000  0.0000
 6885OM     OM1 6885   4.691   3.530   9.293  0.0000  0.0000  0.0000
 6886OM     OM1 6886   4.449   3.507   9.215  0.0000  0.0000  0.0000
 6887OM     OM1 6887   2.392   6.638   0.506  0.0000  0.0000  0.0000
 6888OM     OM1 6888   9.278   9.273   0.354  0.0000  0.0000  0.0000
 6889OM     OM1 6889   9.578   6.697   8.371  0.0000  0.0000  0.0000
 6890OM     OM1 6890   0.169   6.829   8.524  0.0000  0.0000  0.0000
 6891OM     OM1 6891   2.698   7.306   0.986  0.0000  0.0000  0.0000
 6892OM     OM1 6892   2.570   7.382   1.203  0.0000  0.0000  0.0000
 6893OM     OM1 6893   1.418   2.420   0.767  0.0000  0.0000  0.0000
 6894OM     OM1 6894   1.227   2.311   0.890  0.0000  0.0000  0.0000
 6895OM     OM1 6895   5.018   0.082   9.520  0.0000  0.0000  0.0000
 6896OM     OM1 6896   5.217   0.156   0.054  0.0000  0.0000  0.0000
 6897OM     OM1 6897   5.146   0.147   0.307  0.0000  0.0000  0.0000
 6898OM     OM1 6898   5.049   0.337   9.570  0.0000  0.0000  0.0000
 6899OM     OM1 6899   0.515   1.212   8.256  0.0000  0.0000  0.0000
 6900OM     OM1 6900   0.438   1.115   8.485  0.0000  0.0000  0.0000
 6901OM     OM1 6901   2.755   8.350   1.319  0.0000  0.0000  0.0000
 6902OM     OM1 6902   6.592   1.232   0.079  0.0000  0.0000  0.0000
 6903OM     OM1 6903   6.734   1.327   9.492  0.0000  0.0000  0.0000
 6904OM     OM1 6904   6.478   1.387   9.508  0.0000  0.0000  0.0000
 6905OM     OM1 6905   1.794   8.454   9.386  0.0000  0.0000  0.0000
 6906OM     OM1 6906   3.920   1.327   8.736  0.0000  0.0000  0.0000
 6907OM     OM1 6907   3.719   1.435   8.600  0.0000  0.0000  0.0000
 6908OM     OM1 6908   3.784   1.524   8.831  0.0000  0.0000  0.0000
 6909OM     OM1 6909   3.941   1.571   8.628  0.0000  0.0000  0.0000
 6910OM     OM1 6910   2.166   4.294   0.899  0.0000  0.0000  0.0000
 6911OM     OM1 6911   3.562   7.750   8.670  0.0000  0.0000  0.0000
 6912OM     OM1 6912   3.424   7.908   8.502  0.0000  0.0000  0.0000
 6913OM     OM1 6913   5.444   7.621   8.404  0.0000  0.0000  0.0000
 6914OM     OM1 6914   5.383   7.473   8.601  0.0000  0.0000  0.0000
 6915OM     OM1 6915   5.514   7.351   8.409  0.0000  0.0000  0.0000
 6916OM     OM1 6916   1.713   3.709   8.568  0.0000  0.0000  0.0000
 6917OM     OM1 6917   1.656   3.919   8.419  0.0000  0.0000  0.0000
 6918OM     OM1 6918   5.167   2.575   9.419  0.0000  0.0000  0.0000
 6919OM     OM1 6919   4.919   2.550   9.329  0.0000  0.0000  0.0000
 6920OM     OM1 6920   5.090   2.731   9.229  0.0000  0.0000  0.0000
 6921OM     OM1 6921   1.875   6.207   8.284  0.0000  0.0000  0.0000
 6922OM     OM1 6922   0.042   7.988   8.711  0.0000  0.0000  0.0000
 6923OM     OM1 6923   0.269   7.846   8.696  0.0000  0.0000  0.0000
 6924OM     OM1 6924   0.380   7.812   8.464  0.0000  0.0000  0.0000
 6925OM     OM1 6925   0.578   0.148   9.457  0.0000  0.0000  0.0000
 6926OM     OM1 6926   6.284   0.909   8.367  0.0000  0.0000  0.0000
 6927OM     OM1 6927   4.230   2.444   1.093  0.0000  0.0000  0.0000
 6928OM     OM1 6928   4.428   2.277   1.089  0.0000  0.0000  0.0000
 6929OM     OM1 6929   4.204   2.214   0.962  0.0000  0.0000  0.0000
 6930OM     OM1 6930   7.070   8.791   9.534  0.0000  0.0000  0.0000
 6931OM     OM1 6931   3.786   5.174   8.342  0.0000  0.0000  0.0000
 6932OM     OM1 6932   3.571   5.322   8.322  0.0000  0.0000  0.0000
 6933OM     OM1 6933   0.396   3.549   9.111  0.0000  0.0000  0.0000
 6934OM     OM1 6934   0.556   3.459   8.918  0.0000  0.0000  0.0000
 6935OM     OM1 6935   1.710   8.134   8.726  0.0000  0.0000  0.0000
 6936OM     OM1 6936   1.579   8.327   8.600  0.0000  0.0000  0.0000
 6937OM     OM1 6937   1.826   8.356   8.692  0.0000  0.0000  0.0000
 6938OM     OM1 6938   3.143   3.136   8.473  0.0000  0.0000  0.0000
 6939OM     OM1 6939   3.296   2.968   8.319  0.0000  0.0000  0.0000
 6940OM     OM1 6940   3.418   3.140   8.466  0.0000  0.0000  0.0000
 6941OM     OM1 6941   0.064   5.627   0.061  0.0000  0.0000  0.0000
 6942OM     OM1 6942   9.452   5.535   9.567  0.0000  0.0000  0.0000
 6943OM     OM1 6943   9.511   5.461   0.204  0.0000  0.0000  0.0000
 6944OM     OM1 6944   2.183   7.954   9.327  0.0000  0.0000  0.0000
 6945OM     OM1 6945   2.067   7.737   9.277  0.0000  0.0000  0.0000
 6946OM     OM1 6946   0.778   3.249   0.856  0.0000  0.0000  0.0000
 6947OM     OM1 6947   0.827   3.356   0.619  0.0000  0.0000  0.0000
 6948OM     OM1 6948   7.524   9.486   8.843  0.0000  0.0000  0.0000
 6949OM     OM1 6949   7.669   9.287   8.752  0.0000  0.0000  0.0000
 6950OM     OM1 6950   7.665   9.514   8.615  0.0000  0.0000  0.0000
 6951OM     OM1 6951   9.306   7.288   0.975  0.0000  0.0000  0.0000
 6952OM     OM1 6952   9.441   7.094   0.882  0.0000  0.0000  0.0000
 6953OM     OM1 6953   9.249   7.205   0.732  0.0000  0.0000  0.0000
 6954OM     OM1 6954   9.473   7.325   0.764  0.0000  0.0000  0.0000
 6955OM     OM1 6955   9.538   6.617   0.470  0.0000  0.0000  0.0000
 6956OM     OM1 6956   9.362   6.745   0.319  0.0000  0.0000  0.0000
 6957OM     OM1 6957   9.368   6.784   0.567  0.0000  0.0000  0.0000
 6958OM     OM1 6958   6.626   8.988   0.270  0.0000  0.0000  0.0000
 6959OM     OM1 6959   6.601   9.098   9.558  0.0000  0.0000  0.0000
 6960OM     OM1 6960   0.373   5.503   1.078  0.0000  0.0000  0.0000
 6961OM     OM1 6961   0.214   6.645   8.360  0.0000  0.0000  0.0000
 6962OM     OM1 6962   6.623   1.224   0.339  0.0000  0.0000  0.0000
 6963OM     OM1 6963   6.800   1.047   0.393  0.0000  0.0000  0.0000
 6964OM     OM1 6964   6.677   0.850   0.504  0.0000  0.0000  0.0000
 6965OM     OM1 6965   5.453   3.423   9.388  0.0000  0.0000  0.0000
 6966OM     OM1 6966   5.656   3.807   9.189  0.0000  0.0000  0.0000
 6967OM     OM1 6967   5.606   3.629   9.369  0.0000  0.0000  0.0000
 6968OM     OM1 6968   8.756   2.510   1.094  0.0000  0.0000  0.0000
 6969OM     OM1 6969   8.878   2.366   0.914  0.0000  0.0000  0.0000
 6970OM     OM1 6970   6.345   6.515   0.068  0.0000  0.0000  0.0000
 6971OM     OM1 6971   6.302   6.111   9.586  0.0000  0.0000  0.0000
 6972OM     OM1 6972   2.934   8.395   0.450  0.0000  0.0000  0.0000
 6973OM     OM1 6973   2.695   8.315   0.495  0.0000  0.0000  0.0000
 6974OM     OM1 6974   2.761   8.555   0.570  0.0000  0.0000  0.0000
 6975OM     OM1 6975   3.349   8.442   8.837  0.0000  0.0000  0.0000
 6976OM     OM1 6976   3.125   8.394   8.943  0.0000  0.0000  0.0000
 6977OM     OM1 6977   3.325   8.269   9.048  0.0000  0.0000  0.0000
 6978OM     OM1 6978   6.700   7.691   8.361  0.0000  0.0000  0.0000
 6979OM     OM1 6979   8.465   1.237   0.603  0.0000  0.0000  0.0000
 6980OM     OM1 6980   8.266   1.070   0.659  0.0000  0.0000  0.0000
 6981OM     OM1 6981   8.330   1.140   0.411  0.0000  0.0000  0.0000
 6982OM     OM1 6982   0.870   5.692   9.504  0.0000  0.0000  0.0000
 6983OM     OM1 6983   1.064   5.664   9.325  0.0000  0.0000  0.0000
 6984OM     OM1 6984   9.334   5.004   0.040  0.0000  0.0000  0.0000
 6985OM     OM1 6985   9.325   5.210   9.480  0.0000  0.0000  0.0000
 6986OM     OM1 6986   9.105   5.104   9.581  0.0000  0.0000  0.0000
 6987OM     OM1 6987   6.868   5.363   8.459  0.0000  0.0000  0.0000
 6988OM     OM1 6988   6.930   5.581   8.335  0.0000  0.0000  0.0000
 6989OM     OM1 6989   8.480   4.725   0.219  0.0000  0.0000  0.0000
 6990OM     OM1 6990   8.644   4.773   0.419  0.0000  0.0000  0.0000
 6991OM     OM1 6991   1.077   7.454   8.815  0.0000  0.0000  0.0000
 6992OM     OM1 6992   0.894   7.305   8.716  0.0000  0.0000  0.0000
 6993OM     OM1 6993   9.096   8.195   0.219  0.0000  0.0000  0.0000
 6994OM     OM1 6994   9.364   8.181   0.194  0.0000  0.0000  0.0000
 6995OM     OM1 6995   3.028   4.825   9.419  0.0000  0.0000  0.0000
 6996OM     OM1 6996   3.132   4.914   0.048  0.0000  0.0000  0.0000
 6997OM     OM1 6997   9.248   9.360   1.258  0.0000  0.0000  0.0000
 6998OM     OM1 6998   7.305   0.285   0.891  0.0000  0.0000  0.0000
 6999OM     OM1 6999   7.189   0.149   0.708  0.0000  0.0000  0.0000
 7000OM     OM1 7000   0.735   1.490   0.913  0.0000  0.0000  0.0000
 7001OM     OM1 7001   9.160   2.527   8.475  0.0000  0.0000  0.0000
 7002OM     OM1 7002   9.222   3.342   0.328  0.0000  0.0000  0.0000
 7003OM     OM1 7003   7.192   9.172   0.436  0.0000  0.0000  0.0000
 7004OM     OM1 7004   6.948   9.120   0.503  0.0000  0.0000  0.0000
 7005OM     OM1 7005   7.079   8.933   0.383  0.0000  0.0000  0.0000
 7006OM     OM1 7006   3.278   1.126   0.675  0.0000  0.0000  0.0000
 7007OM     OM1 7007   2.034   5.614   0.988  0.0000  0.0000  0.0000
 7008OM     OM1 7008   2.067   5.607   1.246  0.0000  0.0000  0.0000
 7009OM     OM1 7009   2.064   5.383   1.111  0.0000  0.0000  0.0000
 7010OM     OM1 7010   3.703   2.511   9.043  0.0000  0.0000  0.0000
 7011OM     OM1 7011   3.698   2.261   8.981  0.0000  0.0000  0.0000
 7012OM     OM1 7012   3.883   2.432   8.892  0.0000  0.0000  0.0000
 7013OM     OM1 7013   7.107   2.110   0.269  0.0000  0.0000  0.0000
 7014OM     OM1 7014   6.937   2.273   0.390  0.0000  0.0000  0.0000
 7015OM     OM1 7015   6.950   2.259   0.134  0.0000  0.0000  0.0000
 7016OM     OM1 7016   7.150   2.373   0.265  0.0000  0.0000  0.0000
 7017OM     OM1 7017   7.105   5.675   9.235  0.0000  0.0000  0.0000
 7018OM     OM1 7018   6.860   5.751   9.202  0.0000  0.0000  0.0000
 7019OM     OM1 7019   5.936   8.918   1.159  0.0000  0.0000  0.0000
 7020OM     OM1 7020   6.081   9.117   1.259  0.0000  0.0000  0.0000
 7021OM     OM1 7021   8.212   7.089   0.754  0.0000  0.0000  0.0000
 7022OM     OM1 7022   8.224   7.166   0.508  0.0000  0.0000  0.0000
 7023OM     OM1 7023   8.398   7.257   0.711  0.0000  0.0000  0.0000
 7024OM     OM1 7024   2.050   3.967   0.592  0.0000  0.0000  0.0000
 7025OM     OM1 7025   2.138   4.045   0.837  0.0000  0.0000  0.0000
 7026OM     OM1 7026   2.199   4.174   0.625  0.0000  0.0000  0.0000
 7027OM     OM1 7027   1.953   4.171   0.710  0.0000  0.0000  0.0000
 7028OM     OM1 7028   2.154   6.577   0.602  0.0000  0.0000  0.0000
 7029OM     OM1 7029   2.092   6.400   0.793  0.0000  0.0000  0.0000
 7030OM     OM1 7030   2.237   6.615   0.841  0.0000  0.0000  0.0000
 7031OM     OM1 7031   1.986   6.649   0.779  0.0000  0.0000  0.0000
 7032OM     OM1 7032   3.224   4.147   0.121  0.0000  0.0000  0.0000
 7033OM     OM1 7033   3.146   4.113   0.356  0.0000  0.0000  0.0000
 7034OM     OM1 7034   3.026   4.292   0.224  0.0000  0.0000  0.0000
 7035OM     OM1 7035   5.283   3.408   8.541  0.0000  0.0000  0.0000
 7036OM     OM1 7036   5.215   3.598   8.377  0.0000  0.0000  0.0000
 7037OM     OM1 7037   5.247   3.335   8.293  0.0000  0.0000  0.0000
 7038OM     OM1 7038   8.741   8.579   9.025  0.0000  0.0000  0.0000
 7039OM     OM1 7039   8.937   8.417   9.051  0.0000  0.0000  0.0000
 7040OM     OM1 7040   8.902   8.560   8.835  0.0000  0.0000  0.0000
 7041OM     OM1 7041   8.975   8.690   9.045  0.0000  0.0000  0.0000
 7042OM     OM1 7042   3.197   4.835   8.914  0.0000  0.0000  0.0000
 7043OM     OM1 7043   3.280   4.596   8.988  0.0000  0.0000  0.0000
 7044OM     OM1 7044   3.792   5.053   8.916  0.0000  0.0000  0.0000
 7045OM     OM1 7045   3.851   4.863   8.737  0.0000  0.0000  0.0000
 7046OM     OM1 7046   4.006   4.917   8.939  0.0000  0.0000  0.0000
 7047OM     OM1 7047   5.904   3.196   9.315  0.0000  0.0000  0.0000
 7048OM     OM1 7048   6.127   3.119   9.429  0.0000  0.0000  0.0000
 7049OM     OM1 7049   6.052   3.037   9.186  0.0000  0.0000  0.0000
 7050OM     OM1 7050   6.131   3.284   9.230  0.0000  0.0000  0.0000
 7051OM     OM1 7051   7.718   1.068   9.461  0.0000  0.0000  0.0000
 7052OM     OM1 7052   2.508   0.589   8.370  0.0000  0.0000  0.0000
 7053OM     OM1 7053   4.911   4.154   0.498  0.0000  0.0000  0.0000
 7054OM     OM1 7054   5.040   4.006   0.337  0.0000  0.0000  0.0000
 7055OM     OM1 7055   0.737   3.934   0.898  0.0000  0.0000  0.0000
 7056OM     OM1 7056   8.867   4.649   0.072  0.0000  0.0000  0.0000
 7057OM     OM1 7057   8.671   4.522   9.534  0.0000  0.0000  0.0000
 7058OM     OM1 7058   5.566   2.316   0.251  0.0000  0.0000  0.0000
 7059OM     OM1 7059   5.652   2.384   0.023  0.0000  0.0000  0.0000
 7060OM     OM1 7060   5.647   2.565   0.215  0.0000  0.0000  0.0000
 7061OM     OM1 7061   3.345   4.050   1.014  0.0000  0.0000  0.0000
 7062OM     OM1 7062   3.573   4.033   0.915  0.0000  0.0000  0.0000
 7063OM     OM1 7063   3.324   4.313   0.971  0.0000  0.0000  0.0000
 7064OM     OM1 7064   3.539   4.097   1.174  0.0000  0.0000  0.0000
 7065OM     OM1 7065   8.240   1.664   8.359  0.0000  0.0000  0.0000
 7066OM     OM1 7066   8.032   1.626   8.221  0.0000  0.0000  0.0000
 7067OM     OM1 7067   5.540   3.925   8.685  0.0000  0.0000  0.0000
 7068OM     OM1 7068   5.556   3.660   8.728  0.0000  0.0000  0.0000
 7069OM     OM1 7069   5.570   3.818   8.927  0.0000  0.0000  0.0000
 7070OM     OM1 7070   5.341   3.792   8.786  0.0000  0.0000  0.0000
 7071OM     OM1 7071   9.311   5.408   8.648  0.0000  0.0000  0.0000
 7072OM     OM1 7072   9.473   5.204   8.670  0.0000  0.0000  0.0000
 7073OM     OM1 7073   9.442   5.339   8.442  0.0000  0.0000  0.0000
 7074OM     OM1 7074   2.324   3.579   0.549  0.0000  0.0000  0.0000
 7075OM     OM1 7075   2.282   3.603   0.800  0.0000  0.0000  0.0000
 7076OM     OM1 7076   2.116   3.721   0.632  0.0000  0.0000  0.0000
 7077OM     OM1 7077   7.664   7.575   9.043  0.0000  0.0000  0.0000
 7078OM     OM1 7078   7.469   7.712   8.934  0.0000  0.0000  0.0000
 7079OM     OM1 7079   0.455   4.716   9.564  0.0000  0.0000  0.0000
 7080OM     OM1 7080   0.705   4.704   9.531  0.0000  0.0000  0.0000
 7081OM     OM1 7081   0.565   4.495   9.486  0.0000  0.0000  0.0000
 7082OM     OM1 7082   0.928   4.848   9.526  0.0000  0.0000  0.0000
 7083OM     OM1 7083   7.663   5.528   8.853  0.0000  0.0000  0.0000
 7084OM     OM1 7084   7.843   5.563   9.023  0.0000  0.0000  0.0000
 7085OM     OM1 7085   5.086   0.562   0.880  0.0000  0.0000  0.0000
 7086OM     OM1 7086   5.053   0.812   0.945  0.0000  0.0000  0.0000
 7087OM     OM1 7087   2.727   4.035   9.443  0.0000  0.0000  0.0000
 7088OM     OM1 7088   2.519   3.911   9.505  0.0000  0.0000  0.0000
 7089OM     OM1 7089   2.618   4.079   0.078  0.0000  0.0000  0.0000
 7090OM     OM1 7090   2.572   4.650   8.907  0.0000  0.0000  0.0000
 7091OM     OM1 7091   2.687   5.069   9.091  0.0000  0.0000  0.0000
 7092OM     OM1 7092   2.745   4.819   9.014  0.0000  0.0000  0.0000
 7093OM     OM1 7093   2.813   4.629   8.837  0.0000  0.0000  0.0000
 7094OM     OM1 7094   2.361   1.348   8.358  0.0000  0.0000  0.0000
 7095OM     OM1 7095   3.893   5.211   0.716  0.0000  0.0000  0.0000
 7096OM     OM1 7096   3.901   4.970   0.821  0.0000  0.0000  0.0000
 7097OM     OM1 7097   4.082   5.149   0.884  0.0000  0.0000  0.0000
 7098OM     OM1 7098   1.338   5.274   8.435  0.0000  0.0000  0.0000
 7099OM     OM1 7099   6.469   9.490   8.400  0.0000  0.0000  0.0000
 7100OM     OM1 7100   6.383   9.445   8.647  0.0000  0.0000  0.0000
 7101OM     OM1 7101   5.342   4.361   8.953  0.0000  0.0000  0.0000
 7102OM     OM1 7102   5.149   4.529   8.965  0.0000  0.0000  0.0000
 7103OM     OM1 7103   4.710   1.986   9.182  0.0000  0.0000  0.0000
 7104OM     OM1 7104   4.963   2.024   9.176  0.0000  0.0000  0.0000
 7105OM     OM1 7105   4.925   5.982   8.922  0.0000  0.0000  0.0000
 7106OM     OM1 7106   4.762   5.875   8.744  0.0000  0.0000  0.0000
 7107OM     OM1 7107   4.744   6.127   8.809  0.0000  0.0000  0.0000
 7108OM     OM1 7108   8.807   1.156   8.706  0.0000  0.0000  0.0000
 7109OM     OM1 7109   8.588   1.139   8.573  0.0000  0.0000  0.0000
 7110OM     OM1 7110   8.647   0.959   8.747  0.0000  0.0000  0.0000
 7111OM     OM1 7111   8.583   1.209   8.830  0.0000  0.0000  0.0000
 7112OM     OM1 7112   7.171   3.043   1.149  0.0000  0.0000  0.0000
 7113OM     OM1 7113   6.988   3.073   1.333  0.0000  0.0000  0.0000
 7114OM     OM1 7114   7.074   2.837   1.263  0.0000  0.0000  0.0000
 7115OM     OM1 7115   1.968   7.249   9.564  0.0000  0.0000  0.0000
 7116OM     OM1 7116   1.971   7.359   9.326  0.0000  0.0000  0.0000
 7117OM     OM1 7117   2.194   7.287   9.449  0.0000  0.0000  0.0000
 7118OM     OM1 7118   1.474   8.204   0.039  0.0000  0.0000  0.0000
 7119OM     OM1 7119   1.505   8.283   0.289  0.0000  0.0000  0.0000
 7120OM     OM1 7120   1.613   8.418   0.106  0.0000  0.0000  0.0000
 7121OM     OM1 7121   7.228   9.403   0.314  0.0000  0.0000  0.0000
 7122OM     OM1 7122   7.049   9.542   0.176  0.0000  0.0000  0.0000
 7123OM     OM1 7123   7.299   9.513   0.089  0.0000  0.0000  0.0000
 7124OM     OM1 7124   1.015   9.561   0.905  0.0000  0.0000  0.0000
 7125OM     OM1 7125   1.248   0.076   0.908  0.0000  0.0000  0.0000
 7126OM     OM1 7126   0.786   9.549   1.031  0.0000  0.0000  0.0000
 7127OM     OM1 7127   1.400   7.551   1.067  0.0000  0.0000  0.0000
 7128OM     OM1 7128   1.529   7.544   0.841  0.0000  0.0000  0.0000
 7129OM     OM1 7129   1.335   7.716   0.861  0.0000  0.0000  0.0000
 7130OM     OM1 7130   1.560   7.743   0.995  0.0000  0.0000  0.0000
 7131OM     OM1 7131   4.909   7.323   8.804  0.0000  0.0000  0.0000
 7132OM     OM1 7132   4.852   7.124   8.651  0.0000  0.0000  0.0000
 7133OM     OM1 7133   8.472   8.110   0.888  0.0000  0.0000  0.0000
 7134OM     OM1 7134   8.273   8.247   0.957  0.0000  0.0000  0.0000
 7135OM     OM1 7135   2.370   8.671   8.739  0.0000  0.0000  0.0000
 7136OM     OM1 7136   2.173   8.588   8.590  0.0000  0.0000  0.0000
 7137OM     OM1 7137   2.227   8.462   8.809  0.0000  0.0000  0.0000
 7138OM     OM1 7138   3.938   6.572   8.821  0.0000  0.0000  0.0000
 7139OM     OM1 7139   3.711   6.470   8.882  0.0000  0.0000  0.0000
 7140OM     OM1 7140   3.737   6.646   8.692  0.0000  0.0000  0.0000
 7141OM     OM1 7141   6.785   0.543   8.292  0.0000  0.0000  0.0000
 7142OM     OM1 7142   6.637   0.322   8.305  0.0000  0.0000  0.0000
 7143OM     OM1 7143   1.167   6.589   0.932  0.0000  0.0000  0.0000
 7144OM     OM1 7144   1.023   6.983   0.880  0.0000  0.0000  0.0000
 7145OM     OM1 7145   0.908   6.532   0.959  0.0000  0.0000  0.0000
 7146OM     OM1 7146   3.804   6.280   8.722  0.0000  0.0000  0.0000
 7147OM     OM1 7147   3.847   6.049   8.607  0.0000  0.0000  0.0000
 7148OM     OM1 7148   4.030   6.245   8.582  0.0000  0.0000  0.0000
 7149OM     OM1 7149   5.133   7.690   0.626  0.0000  0.0000  0.0000
 7150OM     OM1 7150   5.220   7.648   0.865  0.0000  0.0000  0.0000
 7151OM     OM1 7151   5.318   7.850   0.722  0.0000  0.0000  0.0000
 7152OM     OM1 7152   6.065   2.719   0.486  0.0000  0.0000  0.0000
 7153OM     OM1 7153   6.985   0.637   1.187  0.0000  0.0000  0.0000
 7154OM     OM1 7154   7.152   0.826   1.270  0.0000  0.0000  0.0000
 7155OM     OM1 7155   2.720   5.345   0.231  0.0000  0.0000  0.0000
 7156OM     OM1 7156   2.895   5.529   0.192  0.0000  0.0000  0.0000
 7157OM     OM1 7157   2.995   5.296   0.226  0.0000  0.0000  0.0000
 7158OM     OM1 7158   7.578   1.412   8.660  0.0000  0.0000  0.0000
 7159OM     OM1 7159   7.701   1.290   8.458  0.0000  0.0000  0.0000
 7160OM     OM1 7160   7.444   1.242   8.521  0.0000  0.0000  0.0000
 7161OM     OM1 7161   7.649   1.165   8.678  0.0000  0.0000  0.0000
 7162OM     OM1 7162   1.829   6.534   0.618  0.0000  0.0000  0.0000
 7163OM     OM1 7163   1.897   6.769   0.554  0.0000  0.0000  0.0000
 7164OM     OM1 7164   2.719   8.796   0.661  0.0000  0.0000  0.0000
 7165OM     OM1 7165   2.949   8.918   0.618  0.0000  0.0000  0.0000
 7166OM     OM1 7166   2.744   9.057   0.685  0.0000  0.0000  0.0000
 7167OM     OM1 7167   7.119   0.634   0.426  0.0000  0.0000  0.0000
 7168OM     OM1 7168   7.394   4.490   1.089  0.0000  0.0000  0.0000
 7169OM     OM1 7169   7.446   4.234   1.096  0.0000  0.0000  0.0000
 7170OM     OM1 7170   7.589   4.403   1.228  0.0000  0.0000  0.0000
 7171OM     OM1 7171   7.279   6.966   8.420  0.0000  0.0000  0.0000
 7172OM     OM1 7172   4.333   6.138   9.060  0.0000  0.0000  0.0000
 7173OM     OM1 7173   4.271   5.884   9.060  0.0000  0.0000  0.0000
 7174OM     OM1 7174   4.087   6.068   9.065  0.0000  0.0000  0.0000
 7175OM     OM1 7175   7.006   5.060   9.167  0.0000  0.0000  0.0000
 7176OM     OM1 7176   7.082   5.009   8.917  0.0000  0.0000  0.0000
 7177OM     OM1 7177   6.904   4.861   9.048  0.0000  0.0000  0.0000
 7178OM     OM1 7178   7.830   4.561   0.360  0.0000  0.0000  0.0000
 7179OM     OM1 7179   7.960   4.457   0.172  0.0000  0.0000  0.0000
 7180OM     OM1 7180   3.737   2.647   8.283  0.0000  0.0000  0.0000
 7181OM     OM1 7181   5.407   8.527   1.043  0.0000  0.0000  0.0000
 7182OM     OM1 7182   5.409   8.267   1.061  0.0000  0.0000  0.0000
 7183OM     OM1 7183   0.506   2.276   9.493  0.0000  0.0000  0.0000
 7184OM     OM1 7184   2.371   9.358   1.120  0.0000  0.0000  0.0000
 7185OM     OM1 7185   2.591   9.454   1.034  0.0000  0.0000  0.0000
 7186OM     OM1 7186   5.388   8.032   9.004  0.0000  0.0000  0.0000
 7187OM     OM1 7187   5.210   7.963   8.806  0.0000  0.0000  0.0000
 7188OM     OM1 7188   5.430   7.828   8.861  0.0000  0.0000  0.0000
 7189OM     OM1 7189   5.440   8.074   8.761  0.0000  0.0000  0.0000
 7190OM     OM1 7190   8.394   3.494   9.073  0.0000  0.0000  0.0000
 7191OM     OM1 7191   8.223   3.294   8.988  0.0000  0.0000  0.0000
 7192OM     OM1 7192   8.137   3.497   9.108  0.0000  0.0000  0.0000
 7193OM     OM1 7193   8.243   3.536   8.874  0.0000  0.0000  0.0000
 7194OM     OM1 7194   3.737   5.949   1.084  0.0000  0.0000  0.0000
 7195OM     OM1 7195   3.546   6.107   1.029  0.0000  0.0000  0.0000
 7196OM     OM1 7196   3.547   6.559   9.266  0.0000  0.0000  0.0000
 7197OM     OM1 7197   3.745   6.568   9.421  0.0000  0.0000  0.0000
 7198OM     OM1 7198   4.296   6.974   8.339  0.0000  0.0000  0.0000
 7199OM     OM1 7199   5.539   1.305   8.611  0.0000  0.0000  0.0000
 7200OM     OM1 7200   5.342   1.383   8.450  0.0000  0.0000  0.0000
 7201OM     OM1 7201   3.029   7.799   9.154  0.0000  0.0000  0.0000
 7202OM     OM1 7202   2.932   7.950   9.349  0.0000  0.0000  0.0000
 7203OM     OM1 7203   6.270   8.830   0.759  0.0000  0.0000  0.0000
 7204OM     OM1 7204   6.093   8.825   0.962  0.0000  0.0000  0.0000
 7205OM     OM1 7205   2.413   1.227   0.602  0.0000  0.0000  0.0000
 7206OM     OM1 7206   2.380   1.318   0.354  0.0000  0.0000  0.0000
 7207OM     OM1 7207   5.866   4.714   9.221  0.0000  0.0000  0.0000
 7208OM     OM1 7208   5.966   4.753   8.988  0.0000  0.0000  0.0000
 7209OM     OM1 7209   2.680   6.902   8.371  0.0000  0.0000  0.0000
 7210OM     OM1 7210   7.180   9.603   9.485  0.0000  0.0000  0.0000
 7211OM     OM1 7211   7.442   9.559   9.472  0.0000  0.0000  0.0000
 7212OM     OM1 7212   7.258   9.366   9.482  0.0000  0.0000  0.0000
 7213OM     OM1 7213   1.584   3.819   9.480  0.0000  0.0000  0.0000
 7214OM     OM1 7214   5.952   3.840   0.038  0.0000  0.0000  0.0000
 7215OM     OM1 7215   6.225   3.836   0.113  0.0000  0.0000  0.0000
 7216OM     OM1 7216   6.054   3.883   9.419  0.0000  0.0000  0.0000
 7217OM     OM1 7217   5.638   2.952   1.281  0.0000  0.0000  0.0000
 7218OM     OM1 7218   6.072   5.784   8.467  0.0000  0.0000  0.0000
 7219OM     OM1 7219   5.861   5.656   8.420  0.0000  0.0000  0.0000
 7220OM     OM1 7220   5.841   5.910   8.492  0.0000  0.0000  0.0000
 7221OM     OM1 7221   5.899   5.737   8.669  0.0000  0.0000  0.0000
 7222OM     OM1 7222   1.183   0.242   1.097  0.0000  0.0000  0.0000
 7223OM     OM1 7223   1.176   0.407   1.289  0.0000  0.0000  0.0000
 7224OM     OM1 7224   2.484   6.030   8.624  0.0000  0.0000  0.0000
 7225OM     OM1 7225   2.666   5.857   8.693  0.0000  0.0000  0.0000
 7226OM     OM1 7226   2.920   5.837   8.638  0.0000  0.0000  0.0000
 7227OM     OM1 7227   1.015   1.664   0.255  0.0000  0.0000  0.0000
 7228OM     OM1 7228   1.356   8.074   0.786  0.0000  0.0000  0.0000
 7229OM     OM1 7229   1.127   7.985   0.920  0.0000  0.0000  0.0000
 7230OM     OM1 7230   1.111   8.144   0.734  0.0000  0.0000  0.0000
 7231OM     OM1 7231   1.201   7.887   0.703  0.0000  0.0000  0.0000
 7232OM     OM1 7232   7.597   2.608   8.542  0.0000  0.0000  0.0000
 7233OM     OM1 7233   7.596   2.594   8.807  0.0000  0.0000  0.0000
 7234OM     OM1 7234   7.379   2.631   8.667  0.0000  0.0000  0.0000
 7235OM     OM1 7235   2.898   1.325   9.428  0.0000  0.0000  0.0000
 7236OM     OM1 7236   3.030   1.136   9.525  0.0000  0.0000  0.0000
 7237OM     OM1 7237   3.057   1.321   0.296  0.0000  0.0000  0.0000
 7238OM     OM1 7238   7.398   2.399   0.759  0.0000  0.0000  0.0000
 7239OM     OM1 7239   7.371   2.648   0.699  0.0000  0.0000  0.0000
 7240OM     OM1 7240   0.764   1.779   9.183  0.0000  0.0000  0.0000
 7241OM     OM1 7241   0.570   1.756   9.341  0.0000  0.0000  0.0000
 7242OM     OM1 7242   0.334   1.807   9.442  0.0000  0.0000  0.0000
 7243OM     OM1 7243   7.065   2.119   8.882  0.0000  0.0000  0.0000
 7244OM     OM1 7244   6.851   2.025   8.775  0.0000  0.0000  0.0000
 7245OM     OM1 7245   4.701   9.112   0.975  0.0000  0.0000  0.0000
 7246OM     OM1 7246   4.694   8.888   0.858  0.0000  0.0000  0.0000
 7247OM     OM1 7247   3.102   4.304   8.607  0.0000  0.0000  0.0000
 7248OM     OM1 7248   2.868   4.354   8.519  0.0000  0.0000  0.0000
 7249OM     OM1 7249   2.991   4.537   8.657  0.0000  0.0000  0.0000
 7250OM     OM1 7250   3.080   4.478   8.415  0.0000  0.0000  0.0000
 7251OM     OM1 7251   1.975   1.174   8.757  0.0000  0.0000  0.0000
 7252OM     OM1 7252   1.845   1.111   8.963  0.0000  0.0000  0.0000
 7253OM     OM1 7253   8.328   3.743   8.725  0.0000  0.0000  0.0000
 7254OM     OM1 7254   1.052   0.844   0.941  0.0000  0.0000  0.0000
 7255OM     OM1 7255   9.593   9.360   8.595  0.0000  0.0000  0.0000
 7256OM     OM1 7256   9.440   9.488   8.753  0.0000  0.0000  0.0000
 7257OM     OM1 7257   6.425   2.067   1.284  0.0000  0.0000  0.0000
 7258OM     OM1 7258   2.216   0.110   8.920  0.0000  0.0000  0.0000
 7259OM     OM1 7259   2.263   0.096   9.179  0.0000  0.0000  0.0000
 7260OM     OM1 7260   9.513   4.097   8.845  0.0000  0.0000  0.0000
 7261OM     OM1 7261   9.464   3.977   9.062  0.0000  0.0000  0.0000
 7262OM     OM1 7262   4.951   5.388   8.424  0.0000  0.0000  0.0000
 7263OM     OM1 7263   4.821   5.182   8.337  0.0000  0.0000  0.0000
 7264OM     OM1 7264   5.070   5.150   8.399  0.0000  0.0000  0.0000
 7265OM     OM1 7265   7.423   5.530   0.420  0.0000  0.0000  0.0000
 7266OM     OM1 7266   7.393   5.389   0.631  0.0000  0.0000  0.0000
 7267OM     OM1 7267   2.299   4.260   8.553  0.0000  0.0000  0.0000
 7268OM     OM1 7268   0.038   8.923   1.315  0.0000  0.0000  0.0000
 7269OM     OM1 7269   6.637   2.571   0.571  0.0000  0.0000  0.0000
 7270OM     OM1 7270   6.504   2.462   0.382  0.0000  0.0000  0.0000
 7271OM     OM1 7271   7.999   5.383   9.148  0.0000  0.0000  0.0000
 7272OM     OM1 7272   8.099   5.192   9.001  0.0000  0.0000  0.0000
 7273OM     OM1 7273   8.140   5.181   9.249  0.0000  0.0000  0.0000
 7274OM     OM1 7274   8.247   5.386   9.113  0.0000  0.0000  0.0000
 7275OM     OM1 7275   9.012   1.303   0.143  0.0000  0.0000  0.0000
 7276OM     OM1 7276   9.239   1.216   0.073  0.0000  0.0000  0.0000
 7277OM     OM1 7277   8.108   0.881   0.739  0.0000  0.0000  0.0000
 7278OM     OM1 7278   7.941   0.843   1.176  0.0000  0.0000  0.0000
 7279OM     OM1 7279   8.049   0.762   0.959  0.0000  0.0000  0.0000
 7280OM     OM1 7280   7.789   0.802   0.967  0.0000  0.0000  0.0000
 7281OM     OM1 7281   1.124   9.031   9.139  0.0000  0.0000  0.0000
 7282OM     OM1 7282   1.180   8.921   9.371  0.0000  0.0000  0.0000
 7283OM     OM1 7283   1.059   9.401   9.467  0.0000  0.0000  0.0000
 7284OM     OM1 7284   0.123   9.038   1.099  0.0000  0.0000  0.0000
 7285OM     OM1 7285   0.287   8.970   1.295  0.0000  0.0000  0.0000
 7286OM     OM1 7286   0.106   9.169   1.329  0.0000  0.0000  0.0000
 7287OM     OM1 7287   1.321   0.634   1.321  0.0000  0.0000  0.0000
 7288OM     OM1 7288   1.188   0.829   1.426  0.0000  0.0000  0.0000
 7289OM     OM1 7289   4.506   0.020   8.706  0.0000  0.0000  0.0000
 7290OM     OM1 7290   4.395   9.415   8.820  0.0000  0.0000  0.0000
 7291OM     OM1 7291   4.440   9.495   8.491  0.0000  0.0000  0.0000
 7292OM     OM1 7292   8.927   3.678   9.395  0.0000  0.0000  0.0000
 7293OM     OM1 7293   8.703   3.784   9.375  0.0000  0.0000  0.0000
 7294OM     OM1 7294   8.846   3.862   9.582  0.0000  0.0000  0.0000
 7295OM     OM1 7295   5.472   0.406   0.325  0.0000  0.0000  0.0000
 7296OM     OM1 7296   5.544   0.620   0.459  0.0000  0.0000  0.0000
 7297OM     OM1 7297   5.291   0.566   0.425  0.0000  0.0000  0.0000
 7298OM     OM1 7298   4.334   7.356   9.571  0.0000  0.0000  0.0000
 7299OM     OM1 7299   4.142   7.444   0.118  0.0000  0.0000  0.0000
 7300OM     OM1 7300   4.222   7.206   0.166  0.0000  0.0000  0.0000
 7301OM     OM1 7301   5.292   1.587   8.292  0.0000  0.0000  0.0000
 7302OM     OM1 7302   5.151   1.770   8.170  0.0000  0.0000  0.0000
 7303OM     OM1 7303   0.512   2.096   8.925  0.0000  0.0000  0.0000
 7304OM     OM1 7304   0.570   1.851   9.002  0.0000  0.0000  0.0000
 7305OM     OM1 7305   0.345   1.948   9.076  0.0000  0.0000  0.0000
 7306OM     OM1 7306   0.633   4.579   9.238  0.0000  0.0000  0.0000
 7307OM     OM1 7307   0.616   4.695   8.996  0.0000  0.0000  0.0000
 7308OM     OM1 7308   0.804   4.523   9.039  0.0000  0.0000  0.0000
 7309OM     OM1 7309   5.428   2.367   8.326  0.0000  0.0000  0.0000
 7310OM     OM1 7310   5.292   2.588   8.340  0.0000  0.0000  0.0000
 7311OM     OM1 7311   5.553   2.583   8.255  0.0000  0.0000  0.0000
 7312OM     OM1 7312   5.490   2.561   8.499  0.0000  0.0000  0.0000
 7313OM     OM1 7313   5.560   7.951   0.729  0.0000  0.0000  0.0000
 7314OM     OM1 7314   5.469   7.853   0.512  0.0000  0.0000  0.0000
 7315OM     OM1 7315   6.102   7.643   0.691  0.0000  0.0000  0.0000
 7316OM     OM1 7316   6.329   7.764   0.763  0.0000  0.0000  0.0000
 7317OM     OM1 7317   3.178   9.061   0.969  0.0000  0.0000  0.0000
 7318OM     OM1 7318   3.299   8.924   0.776  0.0000  0.0000  0.0000
 7319OM     OM1 7319   0.596   4.369   0.788  0.0000  0.0000  0.0000
 7320OM     OM1 7320   0.404   4.188   0.785  0.0000  0.0000  0.0000
 7321OM     OM1 7321   5.803   1.529   8.957  0.0000  0.0000  0.0000
 7322OM     OM1 7322   5.581   1.434   9.022  0.0000  0.0000  0.0000
 7323OM     OM1 7323   0.405   6.981   0.746  0.0000  0.0000  0.0000
 7324OM     OM1 7324   0.253   7.042   0.539  0.0000  0.0000  0.0000
 7325OM     OM1 7325   0.535   6.806   0.604  0.0000  0.0000  0.0000
 7326OM     OM1 7326   7.742   4.306   9.229  0.0000  0.0000  0.0000
 7327OM     OM1 7327   7.590   4.638   9.123  0.0000  0.0000  0.0000
 7328OM     OM1 7328   7.753   4.564   9.298  0.0000  0.0000  0.0000
 7329OM     OM1 7329   1.039   9.413   0.120  0.0000  0.0000  0.0000
 7330OM     OM1 7330   5.471   1.902   0.059  0.0000  0.0000  0.0000
 7331OM     OM1 7331   4.126   1.206   8.846  0.0000  0.0000  0.0000
 7332OM     OM1 7332   3.895   1.217   8.973  0.0000  0.0000  0.0000
 7333OM     OM1 7333   3.913   1.065   8.762  0.0000  0.0000  0.0000
 7334OM     OM1 7334   6.996   7.629   8.788  0.0000  0.0000  0.0000
 7335OM     OM1 7335   7.160   7.489   8.655  0.0000  0.0000  0.0000
 7336OM     OM1 7336   7.116   7.750   8.584  0.0000  0.0000  0.0000
 7337OM     OM1 7337   7.259   7.685   8.784  0.0000  0.0000  0.0000
 7338OM     OM1 7338   3.105   2.329   9.171  0.0000  0.0000  0.0000
 7339OM     OM1 7339   3.294   2.303   8.984  0.0000  0.0000  0.0000
 7340OM     OM1 7340   3.076   2.174   8.957  0.0000  0.0000  0.0000
 7341OM     OM1 7341   4.948   3.147   8.352  0.0000  0.0000  0.0000
 7342OM     OM1 7342   4.760   3.319   8.308  0.0000  0.0000  0.0000
 7343OM     OM1 7343   4.768   3.576   8.334  0.0000  0.0000  0.0000
 7344OM     OM1 7344   4.818   3.423   8.540  0.0000  0.0000  0.0000
 7345OM     OM1 7345   8.286   6.844   0.825  0.0000  0.0000  0.0000
 7346OM     OM1 7346   8.146   6.725   0.653  0.0000  0.0000  0.0000
 7347OM     OM1 7347   8.405   6.741   0.623  0.0000  0.0000  0.0000
 7348OM     OM1 7348   0.213   9.255   1.002  0.0000  0.0000  0.0000
 7349OM     OM1 7349   0.092   9.096   0.829  0.0000  0.0000  0.0000
 7350OM     OM1 7350   0.315   9.024   0.925  0.0000  0.0000  0.0000
 7351OM     OM1 7351   4.610   1.668   9.236  0.0000  0.0000  0.0000
 7352OM     OM1 7352   4.663   1.429   9.262  0.0000  0.0000  0.0000
 7353OM     OM1 7353   4.515   1.498   9.052  0.0000  0.0000  0.0000
 7354OM     OM1 7354   2.788   7.931   0.230  0.0000  0.0000  0.0000
 7355OM     OM1 7355   2.974   7.974   0.411  0.0000  0.0000  0.0000
 7356OM     OM1 7356   2.724   8.064   0.438  0.0000  0.0000  0.0000
 7357OM     OM1 7357   1.590   7.321   9.443  0.0000  0.0000  0.0000
 7358OM     OM1 7358   1.213   7.187   9.546  0.0000  0.0000  0.0000
 7359OM     OM1 7359   1.368   7.240   9.338  0.0000  0.0000  0.0000
 7360OM     OM1 7360   4.233   8.062   0.254  0.0000  0.0000  0.0000
 7361OM     OM1 7361   4.453   8.047   0.410  0.0000  0.0000  0.0000
 7362OM     OM1 7362   4.220   7.958   0.488  0.0000  0.0000  0.0000
 7363OM     OM1 7363   1.514   8.660   1.367  0.0000  0.0000  0.0000
 7364OM     OM1 7364   1.318   8.676   1.204  0.0000  0.0000  0.0000
 7365OM     OM1 7365   1.452   8.884   1.236  0.0000  0.0000  0.0000
 7366OM     OM1 7366   0.392   5.437   0.405  0.0000  0.0000  0.0000
 7367OM     OM1 7367   5.253   2.515   9.093  0.0000  0.0000  0.0000
 7368OM     OM1 7368   5.244   2.869   8.806  0.0000  0.0000  0.0000
 7369OM     OM1 7369   0.137   9.116   8.390  0.0000  0.0000  0.0000
 7370OM     OM1 7370   2.670   3.106   9.541  0.0000  0.0000  0.0000
 7371OM     OM1 7371   2.364   3.344   9.485  0.0000  0.0000  0.0000
 7372OM     OM1 7372   2.468   2.970   0.043  0.0000  0.0000  0.0000
 7373OM     OM1 7373   0.614   9.209   0.436  0.0000  0.0000  0.0000
 7374OM     OM1 7374   0.810   9.465   0.772  0.0000  0.0000  0.0000
 7375OM     OM1 7375   8.882   5.877   8.524  0.0000  0.0000  0.0000
 7376OM     OM1 7376   9.083   5.981   8.389  0.0000  0.0000  0.0000
 7377OM     OM1 7377   0.879   8.292   0.409  0.0000  0.0000  0.0000
 7378OM     OM1 7378   0.952   8.313   0.157  0.0000  0.0000  0.0000
 7379OM     OM1 7379   0.975   8.082   0.284  0.0000  0.0000  0.0000
 7380OM     OM1 7380   0.739   8.176   0.225  0.0000  0.0000  0.0000
 7381OM     OM1 7381   6.770   5.312   0.515  0.0000  0.0000  0.0000
 7382OM     OM1 7382   6.587   5.300   0.338  0.0000  0.0000  0.0000
 7383OM     OM1 7383   6.310   8.121   0.795  0.0000  0.0000  0.0000
 7384OM     OM1 7384   2.225   3.142   9.377  0.0000  0.0000  0.0000
 7385OM     OM1 7385   2.268   2.898   9.277  0.0000  0.0000  0.0000
 7386OM     OM1 7386   2.149   3.082   9.138  0.0000  0.0000  0.0000
 7387OM     OM1 7387   2.031   2.963   9.340  0.0000  0.0000  0.0000
 7388OM     OM1 7388   1.463   8.591   9.318  0.0000  0.0000  0.0000
 7389OM     OM1 7389   1.673   8.735   9.225  0.0000  0.0000  0.0000
 7390OM     OM1 7390   8.301   7.015   0.321  0.0000  0.0000  0.0000
 7391OM     OM1 7391   8.176   7.238   0.256  0.0000  0.0000  0.0000
 7392OM     OM1 7392   0.980   3.304   8.772  0.0000  0.0000  0.0000
 7393OM     OM1 7393   1.072   3.071   8.826  0.0000  0.0000  0.0000
 7394OM     OM1 7394   0.849   5.527   8.843  0.0000  0.0000  0.0000
 7395OM     OM1 7395   0.954   5.320   8.953  0.0000  0.0000  0.0000
 7396OM     OM1 7396   1.038   5.399   8.713  0.0000  0.0000  0.0000
 7397OM     OM1 7397   5.617   2.169   0.463  0.0000  0.0000  0.0000
 7398OM     OM1 7398   5.602   1.921   0.534  0.0000  0.0000  0.0000
 7399OM     OM1 7399   9.085   0.494   8.350  0.0000  0.0000  0.0000
 7400OM     OM1 7400   8.877   0.547   8.504  0.0000  0.0000  0.0000
 7401OM     OM1 7401   7.456   3.804   9.227  0.0000  0.0000  0.0000
 7402OM     OM1 7402   7.541   3.558   9.302  0.0000  0.0000  0.0000
 7403OM     OM1 7403   7.578   3.753   9.455  0.0000  0.0000  0.0000
 7404OM     OM1 7404   7.701   3.732   9.210  0.0000  0.0000  0.0000
 7405OM     OM1 7405   5.321   8.128   9.388  0.0000  0.0000  0.0000
 7406OM     OM1 7406   5.542   8.267   9.404  0.0000  0.0000  0.0000
 7407OM     OM1 7407   5.309   8.372   9.357  0.0000  0.0000  0.0000
 7408OM     OM1 7408   2.839   0.478   1.064  0.0000  0.0000  0.0000
 7409OM     OM1 7409   2.984   0.141   0.813  0.0000  0.0000  0.0000
 7410OM     OM1 7410   2.861   0.522   0.802  0.0000  0.0000  0.0000
 7411OM     OM1 7411   0.993   0.403   9.469  0.0000  0.0000  0.0000
 7412OM     OM1 7412   1.238   0.467   9.381  0.0000  0.0000  0.0000
 7413OM     OM1 7413   1.135   0.593   9.576  0.0000  0.0000  0.0000
 7414OM     OM1 7414   8.130   3.304   0.664  0.0000  0.0000  0.0000
 7415OM     OM1 7415   7.080   8.138   9.060  0.0000  0.0000  0.0000
 7416OM     OM1 7416   6.836   8.195   8.990  0.0000  0.0000  0.0000
 7417OM     OM1 7417   8.462   3.643   8.526  0.0000  0.0000  0.0000
 7418OM     OM1 7418   3.537   6.662   0.510  0.0000  0.0000  0.0000
 7419OM     OM1 7419   3.749   6.792   0.515  0.0000  0.0000  0.0000
 7420OM     OM1 7420   3.537   6.920   0.445  0.0000  0.0000  0.0000
 7421OM     OM1 7421   7.287   5.556   9.371  0.0000  0.0000  0.0000
 7422OM     OM1 7422   7.412   5.542   9.603  0.0000  0.0000  0.0000
 7423OM     OM1 7423   3.064   5.724   9.191  0.0000  0.0000  0.0000
 7424OM     OM1 7424   3.009   9.535   0.683  0.0000  0.0000  0.0000
 7425OM     OM1 7425   3.226   0.026   0.791  0.0000  0.0000  0.0000
 7426OM     OM1 7426   3.112   0.157   0.592  0.0000  0.0000  0.0000
 7427OM     OM1 7427   1.307   6.752   8.382  0.0000  0.0000  0.0000
 7428OM     OM1 7428   1.112   6.880   8.499  0.0000  0.0000  0.0000
 7429OM     OM1 7429   1.140   6.619   8.521  0.0000  0.0000  0.0000
 7430OM     OM1 7430   2.806   4.700   8.589  0.0000  0.0000  0.0000
 7431OM     OM1 7431   3.176   4.941   8.667  0.0000  0.0000  0.0000
 7432OM     OM1 7432   2.995   4.784   8.755  0.0000  0.0000  0.0000
 7433OM     OM1 7433   5.724   7.457   1.262  0.0000  0.0000  0.0000
 7434OM     OM1 7434   8.578   6.222   0.511  0.0000  0.0000  0.0000
 7435OM     OM1 7435   8.569   6.479   0.582  0.0000  0.0000  0.0000
 7436OM     OM1 7436   8.554   6.289   0.752  0.0000  0.0000  0.0000
 7437OM     OM1 7437   5.514   4.690   9.580  0.0000  0.0000  0.0000
 7438OM     OM1 7438   5.611   4.926   9.548  0.0000  0.0000  0.0000
 7439OM     OM1 7439   5.474   4.859   0.162  0.0000  0.0000  0.0000
 7440OM     OM1 7440   5.040   2.668   8.401  0.0000  0.0000  0.0000
 7441OM     OM1 7441   5.090   2.424   8.338  0.0000  0.0000  0.0000
 7442OM     OM1 7442   5.225   8.698   1.099  0.0000  0.0000  0.0000
 7443OM     OM1 7443   0.603   6.248   9.322  0.0000  0.0000  0.0000
 7444OM     OM1 7444   0.366   6.236   9.432  0.0000  0.0000  0.0000
 7445OM     OM1 7445   0.567   6.359   9.559  0.0000  0.0000  0.0000
 7446OM     OM1 7446   2.202   3.598   8.680  0.0000  0.0000  0.0000
 7447OM     OM1 7447   3.039   2.636   8.765  0.0000  0.0000  0.0000
 7448OM     OM1 7448   3.244   2.477   8.794  0.0000  0.0000  0.0000
 7449OM     OM1 7449   3.299   8.071   8.304  0.0000  0.0000  0.0000
 7450OM     OM1 7450   3.241   8.083   8.553  0.0000  0.0000  0.0000
 7451OM     OM1 7451   8.903   9.376   9.362  0.0000  0.0000  0.0000
 7452OM     OM1 7452   8.782   9.499   8.946  0.0000  0.0000  0.0000
 7453OM     OM1 7453   8.832   9.299   9.088  0.0000  0.0000  0.0000
 7454OM     OM1 7454   2.952   2.168   0.800  0.0000  0.0000  0.0000
 7455OM     OM1 7455   3.114   1.983   0.707  0.0000  0.0000  0.0000
 7456OM     OM1 7456   3.076   2.026   0.970  0.0000  0.0000  0.0000
 7457OM     OM1 7457   5.078   4.011   1.247  0.0000  0.0000  0.0000
 7458OM     OM1 7458   4.990   4.048   1.008  0.0000  0.0000  0.0000
 7459OM     OM1 7459   0.236   1.158   8.638  0.0000  0.0000  0.0000
 7460OM     OM1 7460   0.104   1.382   8.604  0.0000  0.0000  0.0000
 7461OM     OM1 7461   9.592   1.195   8.720  0.0000  0.0000  0.0000
 7462OM     OM1 7462   5.598   0.841   0.592  0.0000  0.0000  0.0000
 7463OM     OM1 7463   5.570   1.021   0.785  0.0000  0.0000  0.0000
 7464OM     OM1 7464   6.634   2.175   8.752  0.0000  0.0000  0.0000
 7465OM     OM1 7465   6.588   2.424   8.706  0.0000  0.0000  0.0000
 7466OM     OM1 7466   6.381   2.276   8.760  0.0000  0.0000  0.0000
 7467OM     OM1 7467   0.417   0.355   9.440  0.0000  0.0000  0.0000
 7468OM     OM1 7468   0.516   0.295   9.214  0.0000  0.0000  0.0000
 7469OM     OM1 7469   6.019   8.831   0.723  0.0000  0.0000  0.0000
 7470OM     OM1 7470   7.866   1.449   8.327  0.0000  0.0000  0.0000
 7471OM     OM1 7471   1.577   1.039   9.094  0.0000  0.0000  0.0000
 7472OM     OM1 7472   2.169   6.820   1.274  0.0000  0.0000  0.0000
 7473OM     OM1 7473   7.763   5.319   9.093  0.0000  0.0000  0.0000
 7474OM     OM1 7474   0.980   0.501   8.569  0.0000  0.0000  0.0000
 7475OM     OM1 7475   1.084   0.640   8.753  0.0000  0.0000  0.0000
 7476OM     OM1 7476   1.087   0.747   8.531  0.0000  0.0000  0.0000
 7477OM     OM1 7477   0.851   0.725   8.626  0.0000  0.0000  0.0000
 7478OM     OM1 7478   8.384   8.032   0.402  0.0000  0.0000  0.0000
 7479OM     OM1 7479   0.586   4.196   0.127  0.0000  0.0000  0.0000
 7480OM     OM1 7480   0.547   3.935   0.063  0.0000  0.0000  0.0000
 7481OM     OM1 7481   1.163   5.926   0.662  0.0000  0.0000  0.0000
 7482OM     OM1 7482   1.020   5.760   0.792  0.0000  0.0000  0.0000
 7483OM     OM1 7483   0.898   5.870   0.600  0.0000  0.0000  0.0000
 7484OM     OM1 7484   4.359   4.525   0.437  0.0000  0.0000  0.0000
 7485OM     OM1 7485   3.012   2.039   8.449  0.0000  0.0000  0.0000
 7486OM     OM1 7486   2.940   1.790   8.490  0.0000  0.0000  0.0000
 7487OM     OM1 7487   2.139   6.620   8.853  0.0000  0.0000  0.0000
 7488OM     OM1 7488   2.060   6.589   8.615  0.0000  0.0000  0.0000
 7489OM     OM1 7489   2.184   6.392   8.745  0.0000  0.0000  0.0000
 7490OM     OM1 7490   9.257   0.686   8.351  0.0000  0.0000  0.0000
 7491OM     OM1 7491   9.258   0.625   8.606  0.0000  0.0000  0.0000
 7492OM     OM1 7492   9.218   0.874   8.529  0.0000  0.0000  0.0000
 7493OM     OM1 7493   3.284   8.786   1.276  0.0000  0.0000  0.0000
 7494OM     OM1 7494   3.261   8.682   1.032  0.0000  0.0000  0.0000
 7495OM     OM1 7495   1.375   6.502   0.781  0.0000  0.0000  0.0000
 7496OM     OM1 7496   1.131   6.401   0.779  0.0000  0.0000  0.0000
 7497OM     OM1 7497   6.845   4.859   0.988  0.0000  0.0000  0.0000
 7498OM     OM1 7498   3.171   9.605   9.595  0.0000  0.0000  0.0000
 7499OM     OM1 7499   3.195   0.208   0.161  0.0000  0.0000  0.0000
 7500OM     OM1 7500   3.392   0.142   0.004  0.0000  0.0000  0.0000
 7501OM     OM1 7501   3.167   0.242   9.510  0.0000  0.0000  0.0000
 7502OM     OM1 7502   5.951   2.570   9.315  0.0000  0.0000  0.0000
 7503OM     OM1 7503   6.196   2.678   9.314  0.0000  0.0000  0.0000
 7504OM     OM1 7504   5.991   2.820   9.300  0.0000  0.0000  0.0000
 7505OM     OM1 7505   9.564   7.524   8.821  0.0000  0.0000  0.0000
 7506OM     OM1 7506   0.070   7.749   8.828  0.0000  0.0000  0.0000
 7507OM     OM1 7507   6.016   7.379   8.816  0.0000  0.0000  0.0000
 7508OM     OM1 7508   6.229   7.442   8.689  0.0000  0.0000  0.0000
 7509OM     OM1 7509   6.307   7.314   8.473  0.0000  0.0000  0.0000
 7510OM     OM1 7510   4.153   7.857   1.436  0.0000  0.0000  0.0000
 7511OM     OM1 7511   6.424   3.219   0.661  0.0000  0.0000  0.0000
 7512OM     OM1 7512   6.277   2.993   0.723  0.0000  0.0000  0.0000
 7513OM     OM1 7513   8.502   5.017   0.727  0.0000  0.0000  0.0000
 7514OM     OM1 7514   8.313   4.901   0.588  0.0000  0.0000  0.0000
 7515OM     OM1 7515   8.338   4.918   1.056  0.0000  0.0000  0.0000
 7516OM     OM1 7516   8.365   6.137   0.808  0.0000  0.0000  0.0000
 7517OM     OM1 7517   8.567   6.160   0.982  0.0000  0.0000  0.0000
 7518OM     OM1 7518   3.122   9.393   0.132  0.0000  0.0000  0.0000
 7519OM     OM1 7519   3.164   9.292   0.382  0.0000  0.0000  0.0000
 7520OM     OM1 7520   4.584   6.497   9.356  0.0000  0.0000  0.0000
 7521OM     OM1 7521   4.444   6.323   9.217  0.0000  0.0000  0.0000
 7522OM     OM1 7522   4.207   6.359   9.098  0.0000  0.0000  0.0000
 7523OM     OM1 7523   7.189   0.646   8.799  0.0000  0.0000  0.0000
 7524OM     OM1 7524   6.970   0.723   8.694  0.0000  0.0000  0.0000
 7525OM     OM1 7525   7.154   0.600   8.543  0.0000  0.0000  0.0000
 7526OM     OM1 7526   6.048   6.163   9.517  0.0000  0.0000  0.0000
 7527OM     OM1 7527   6.120   5.917   9.584  0.0000  0.0000  0.0000
 7528OM     OM1 7528   6.628   8.126   8.369  0.0000  0.0000  0.0000
 7529OM     OM1 7529   6.715   8.374   8.385  0.0000  0.0000  0.0000
 7530OM     OM1 7530   8.664   5.229   9.465  0.0000  0.0000  0.0000
 7531OM     OM1 7531   8.475   5.424   9.474  0.0000  0.0000  0.0000
 7532OM     OM1 7532   8.612   5.349   0.076  0.0000  0.0000  0.0000
 7533OM     OM1 7533   5.788   8.460   0.960  0.0000  0.0000  0.0000
 7534OM     OM1 7534   5.934   8.657   1.074  0.0000  0.0000  0.0000
 7535OM     OM1 7535   0.016   2.733   0.479  0.0000  0.0000  0.0000
 7536OM     OM1 7536   3.205   8.246   9.285  0.0000  0.0000  0.0000
 7537OM     OM1 7537   3.462   8.228   9.264  0.0000  0.0000  0.0000
 7538OM     OM1 7538   8.360   4.891   0.060  0.0000  0.0000  0.0000
 7539OM     OM1 7539   6.973   4.623   0.916  0.0000  0.0000  0.0000
 7540OM     OM1 7540   6.889   4.763   0.737  0.0000  0.0000  0.0000
 7541OM     OM1 7541   5.692   3.325   9.408  0.0000  0.0000  0.0000
 7542OM     OM1 7542   5.497   3.204   9.521  0.0000  0.0000  0.0000
 7543OM     OM1 7543   5.513   3.203   9.261  0.0000  0.0000  0.0000
 7544OM     OM1 7544   7.178   9.359   9.055  0.0000  0.0000  0.0000
 7545OM     OM1 7545   2.548   2.988   0.914  0.0000  0.0000  0.0000
 7546OM     OM1 7546   2.793   3.061   0.903  0.0000  0.0000  0.0000
 7547OM     OM1 7547   9.389   3.614   8.646  0.0000  0.0000  0.0000
 7548OM     OM1 7548   3.777   6.292   0.442  0.0000  0.0000  0.0000
 7549OM     OM1 7549   3.832   6.537   0.528  0.0000  0.0000  0.0000
 7550OM     OM1 7550   3.937   6.333   0.646  0.0000  0.0000  0.0000
 7551OM     OM1 7551   8.300   5.141   8.317  0.0000  0.0000  0.0000
 7552OM     OM1 7552   8.348   5.060   8.551  0.0000  0.0000  0.0000
 7553OM     OM1 7553   1.444   6.525   9.412  0.0000  0.0000  0.0000
 7554OM     OM1 7554   1.418   6.757   9.522  0.0000  0.0000  0.0000
 7555OM     OM1 7555   6.396   8.693   8.929  0.0000  0.0000  0.0000
 7556OM     OM1 7556   0.690   5.843   0.746  0.0000  0.0000  0.0000
 7557OM     OM1 7557   0.794   5.633   0.624  0.0000  0.0000  0.0000
 7558OM     OM1 7558   0.658   5.802   0.489  0.0000  0.0000  0.0000
 7559OM     OM1 7559   5.908   3.835   8.338  0.0000  0.0000  0.0000
 7560OM     OM1 7560   1.027   4.898   0.545  0.0000  0.0000  0.0000
 7561OM     OM1 7561   0.959   5.148   0.464  0.0000  0.0000  0.0000
 7562OM     OM1 7562   0.910   4.940   0.323  0.0000  0.0000  0.0000
 7563OM     OM1 7563   1.159   5.016   0.358  0.0000  0.0000  0.0000
 7564OM     OM1 7564   9.514   7.641   0.241  0.0000  0.0000  0.0000
 7565OM     OM1 7565   0.058   7.846   0.200  0.0000  0.0000  0.0000
 7566OM     OM1 7566   7.657   3.777   0.098  0.0000  0.0000  0.0000
 7567OM     OM1 7567   1.660   7.370   0.982  0.0000  0.0000  0.0000
 7568OM     OM1 7568   1.545   7.250   1.183  0.0000  0.0000  0.0000
 7569OM     OM1 7569   1.709   7.380   0.725  0.0000  0.0000  0.0000
 7570OM     OM1 7570   6.341   9.402   9.321  0.0000  0.0000  0.0000
 7571OM     OM1 7571   6.087   9.394   9.389  0.0000  0.0000  0.0000
 7572OM     OM1 7572   5.985   9.430   9.156  0.0000  0.0000  0.0000
 7573OM     OM1 7573   1.534   4.714   0.834  0.0000  0.0000  0.0000
 7574OM     OM1 7574   1.535   4.753   0.581  0.0000  0.0000  0.0000
 7575OM     OM1 7575   1.762   4.696   0.685  0.0000  0.0000  0.0000
 7576OM     OM1 7576   8.888   1.556   9.095  0.0000  0.0000  0.0000
 7577OM     OM1 7577   8.754   1.358   9.194  0.0000  0.0000  0.0000
 7578OM     OM1 7578   4.398   3.092   0.537  0.0000  0.0000  0.0000
 7579OM     OM1 7579   1.936   9.280   8.537  0.0000  0.0000  0.0000
 7580OM     OM1 7580   1.816   9.117   8.381  0.0000  0.0000  0.0000
 7581OM     OM1 7581   1.990   9.019   8.546  0.0000  0.0000  0.0000
 7582OM     OM1 7582   2.627   8.725   8.715  0.0000  0.0000  0.0000
 7583OM     OM1 7583   2.528   1.471   9.232  0.0000  0.0000  0.0000
 7584OM     OM1 7584   0.414   5.840   0.566  0.0000  0.0000  0.0000
 7585OM     OM1 7585   0.173   5.919   0.566  0.0000  0.0000  0.0000
 7586OM     OM1 7586   5.532   8.256   8.601  0.0000  0.0000  0.0000
 7587OM     OM1 7587   5.413   8.329   8.834  0.0000  0.0000  0.0000
 7588OM     OM1 7588   4.762   1.673   9.461  0.0000  0.0000  0.0000
 7589OM     OM1 7589   4.507   1.641   9.474  0.0000  0.0000  0.0000
 7590OM     OM1 7590   4.600   1.870   9.388  0.0000  0.0000  0.0000
 7591OM     OM1 7591   8.114   5.133   9.493  0.0000  0.0000  0.0000
 7592OM     OM1 7592   8.229   5.373   9.547  0.0000  0.0000  0.0000
 7593OM     OM1 7593   8.342   5.147   9.601  0.0000  0.0000  0.0000
 7594OM     OM1 7594   7.789   7.269   8.677  0.0000  0.0000  0.0000
 7595OM     OM1 7595   7.624   7.199   8.867  0.0000  0.0000  0.0000
 7596OM     OM1 7596   7.713   7.030   8.665  0.0000  0.0000  0.0000
 7597OM     OM1 7597   5.207   6.696   8.454  0.0000  0.0000  0.0000
 7598OM     OM1 7598   4.946   6.599   8.408  0.0000  0.0000  0.0000
 7599OM     OM1 7599   2.540   2.974   0.651  0.0000  0.0000  0.0000
 7600OM     OM1 7600   2.710   2.987   0.445  0.0000  0.0000  0.0000
 7601OM     OM1 7601   7.396   6.687   0.528  0.0000  0.0000  0.0000
 7602OM     OM1 7602   7.425   6.919   0.400  0.0000  0.0000  0.0000
 7603OM     OM1 7603   4.098   3.192   8.877  0.0000  0.0000  0.0000
 7604OM     OM1 7604   4.297   3.515   8.731  0.0000  0.0000  0.0000
 7605OM     OM1 7605   4.289   3.252   8.703  0.0000  0.0000  0.0000
 7606OM     OM1 7606   4.092   3.388   8.641  0.0000  0.0000  0.0000
 7607OM     OM1 7607   9.243   6.870   9.078  0.0000  0.0000  0.0000
 7608OM     OM1 7608   3.008   0.334   8.958  0.0000  0.0000  0.0000
 7609OM     OM1 7609   3.247   0.422   8.932  0.0000  0.0000  0.0000
 7610OM     OM1 7610   7.315   6.783   0.741  0.0000  0.0000  0.0000
 7611OM     OM1 7611   1.540   4.359   1.106  0.0000  0.0000  0.0000
 7612OM     OM1 7612   3.081   3.486   0.773  0.0000  0.0000  0.0000
 7613OM     OM1 7613   3.102   3.360   1.024  0.0000  0.0000  0.0000
 7614OM     OM1 7614   3.330   3.323   1.129  0.0000  0.0000  0.0000
 7615OM     OM1 7615   3.594   7.083   8.804  0.0000  0.0000  0.0000
 7616OM     OM1 7616   3.460   7.306   8.847  0.0000  0.0000  0.0000
 7617OM     OM1 7617   3.347   7.062   8.863  0.0000  0.0000  0.0000
 7618OM     OM1 7618   3.510   3.233   8.686  0.0000  0.0000  0.0000
 7619OM     OM1 7619   3.382   3.160   8.893  0.0000  0.0000  0.0000
 7620OM     OM1 7620   3.358   3.408   8.815  0.0000  0.0000  0.0000
 7621OM     OM1 7621   7.801   0.258   0.560  0.0000  0.0000  0.0000
 7622OM     OM1 7622   7.648   0.278   0.759  0.0000  0.0000  0.0000
 7623OM     OM1 7623   7.772   0.499   0.653  0.0000  0.0000  0.0000
 7624OM     OM1 7624   2.656   0.961   8.195  0.0000  0.0000  0.0000
 7625OM     OM1 7625   2.876   0.839   8.279  0.0000  0.0000  0.0000
 7626OM     OM1 7626   2.788   1.058   8.395  0.0000  0.0000  0.0000
 7627OM     OM1 7627   2.933   6.888   8.298  0.0000  0.0000  0.0000
 7628OM     OM1 7628   2.818   6.677   8.383  0.0000  0.0000  0.0000
 7629OM     OM1 7629   4.818   2.379   9.164  0.0000  0.0000  0.0000
 7630OM     OM1 7630   4.776   2.612   9.056  0.0000  0.0000  0.0000
 7631OM     OM1 7631   4.787   2.418   8.891  0.0000  0.0000  0.0000
 7632OM     OM1 7632   2.701   4.302   8.814  0.0000  0.0000  0.0000
 7633OM     OM1 7633   2.461   4.204   8.744  0.0000  0.0000  0.0000
 7634OM     OM1 7634   2.513   4.462   8.740  0.0000  0.0000  0.0000
 7635OM     OM1 7635   2.625   4.291   8.570  0.0000  0.0000  0.0000
 7636OM     OM1 7636   6.244   6.618   1.253  0.0000  0.0000  0.0000
 7637OM     OM1 7637   7.482   7.284   1.099  0.0000  0.0000  0.0000
 7638OM     OM1 7638   7.683   7.143   1.169  0.0000  0.0000  0.0000
 7639OM     OM1 7639   7.721   7.406   1.103  0.0000  0.0000  0.0000
 7640OM     OM1 7640   5.464   1.972   0.742  0.0000  0.0000  0.0000
 7641OM     OM1 7641   5.719   1.926   0.769  0.0000  0.0000  0.0000
 7642OM     OM1 7642   2.325   0.941   9.493  0.0000  0.0000  0.0000
 7643OM     OM1 7643   2.128   0.797   9.380  0.0000  0.0000  0.0000
 7644OM     OM1 7644   7.762   5.145   8.672  0.0000  0.0000  0.0000
 7645OM     OM1 7645   7.802   4.913   8.781  0.0000  0.0000  0.0000
 7646OM     OM1 7646   7.627   4.744   8.701  0.0000  0.0000  0.0000
 7647OM     OM1 7647   8.037   3.525   9.572  0.0000  0.0000  0.0000
 7648OM     OM1 7648   8.250   3.672   9.567  0.0000  0.0000  0.0000
 7649OM     OM1 7649   5.567   2.768   0.374  0.0000  0.0000  0.0000
 7650OM     OM1 7650   5.557   2.918   0.593  0.0000  0.0000  0.0000
 7651OM     OM1 7651   7.971   2.015   0.080  0.0000  0.0000  0.0000
 7652OM     OM1 7652   7.995   2.144   9.461  0.0000  0.0000  0.0000
 7653OM     OM1 7653   7.968   2.280   0.075  0.0000  0.0000  0.0000
 7654OM     OM1 7654   6.941   3.318   0.535  0.0000  0.0000  0.0000
 7655OM     OM1 7655   0.706   4.155   9.173  0.0000  0.0000  0.0000
 7656OM     OM1 7656   0.362   3.960   8.888  0.0000  0.0000  0.0000
 7657OM     OM1 7657   1.318   1.260   8.476  0.0000  0.0000  0.0000
 7658OM     OM1 7658   1.240   0.913   8.675  0.0000  0.0000  0.0000
 7659OM     OM1 7659   8.303   0.812   8.761  0.0000  0.0000  0.0000
 7660OM     OM1 7660   8.061   0.904   8.815  0.0000  0.0000  0.0000
 7661OM     OM1 7661   0.887   7.673   8.311  0.0000  0.0000  0.0000
 7662OM     OM1 7662   0.637   7.609   8.370  0.0000  0.0000  0.0000
 7663OM     OM1 7663   1.122   7.783   8.328  0.0000  0.0000  0.0000
 7664OM     OM1 7664   8.811   1.045   1.266  0.0000  0.0000  0.0000
 7665OM     OM1 7665   1.779   7.787   8.481  0.0000  0.0000  0.0000
 7666OM     OM1 7666   1.843   7.636   8.290  0.0000  0.0000  0.0000
 7667OM     OM1 7667   5.166   1.727   8.756  0.0000  0.0000  0.0000
 7668OM     OM1 7668   0.471   1.094   8.750  0.0000  0.0000  0.0000
 7669OM     OM1 7669   0.260   0.844   8.795  0.0000  0.0000  0.0000
 7670OM     OM1 7670   3.766   5.430   0.747  0.0000  0.0000  0.0000
 7671OM     OM1 7671   3.329   5.502   0.783  0.0000  0.0000  0.0000
 7672OM     OM1 7672   3.461   5.299   0.717  0.0000  0.0000  0.0000
 7673OM     OM1 7673   3.961   3.595   8.745  0.0000  0.0000  0.0000
 7674OM     OM1 7674   0.076   2.378   9.313  0.0000  0.0000  0.0000
 7675OM     OM1 7675   9.350   5.334   9.246  0.0000  0.0000  0.0000
 7676OM     OM1 7676   9.338   5.574   9.331  0.0000  0.0000  0.0000
 7677OM     OM1 7677   9.415   5.527   9.086  0.0000  0.0000  0.0000
 7678OM     OM1 7678   3.018   6.955   8.842  0.0000  0.0000  0.0000
 7679OM     OM1 7679   3.073   6.866   8.596  0.0000  0.0000  0.0000
 7680OM     OM1 7680   2.959   7.092   8.616  0.0000  0.0000  0.0000
 7681OM     OM1 7681   3.202   6.502   0.796  0.0000  0.0000  0.0000
 7682OM     OM1 7682   3.123   6.682   0.615  0.0000  0.0000  0.0000
 7683OM     OM1 7683   2.175   9.562   0.074  0.0000  0.0000  0.0000
 7684OM     OM1 7684   2.423   9.586   9.592  0.0000  0.0000  0.0000
 7685OM     OM1 7685   2.229   0.054   9.438  0.0000  0.0000  0.0000
 7686OM     OM1 7686   7.165   8.775   8.309  0.0000  0.0000  0.0000
 7687OM     OM1 7687   7.118   9.487   8.388  0.0000  0.0000  0.0000
 7688OM     OM1 7688   7.285   0.047   8.491  0.0000  0.0000  0.0000
 7689OM     OM1 7689   6.386   2.986   0.418  0.0000  0.0000  0.0000
 7690OM     OM1 7690   6.647   2.928   0.435  0.0000  0.0000  0.0000
 7691OM     OM1 7691   2.520   4.774   0.632  0.0000  0.0000  0.0000
 7692OM     OM1 7692   2.742   4.766   0.764  0.0000  0.0000  0.0000
 7693OM     OM1 7693   6.673   8.040   9.120  0.0000  0.0000  0.0000
 7694OM     OM1 7694   6.359   8.230   9.154  0.0000  0.0000  0.0000
 7695OM     OM1 7695   6.607   8.289   9.107  0.0000  0.0000  0.0000
 7696OM     OM1 7696   6.497   8.399   9.317  0.0000  0.0000  0.0000
 7697OM     OM1 7697   8.072   6.544   9.114  0.0000  0.0000  0.0000
 7698OM     OM1 7698   7.862   6.451   9.234  0.0000  0.0000  0.0000
 7699OM     OM1 7699   8.095   6.805   9.182  0.0000  0.0000  0.0000
 7700OM     OM1 7700   7.903   3.174   0.243  0.0000  0.0000  0.0000
 7701OM     OM1 7701   8.081   2.989   0.155  0.0000  0.0000  0.0000
 7702OM     OM1 7702   0.816   4.240   0.239  0.0000  0.0000  0.0000
 7703OM     OM1 7703   0.619   4.393   0.304  0.0000  0.0000  0.0000
 7704OM     OM1 7704   5.154   3.776   0.316  0.0000  0.0000  0.0000
 7705OM     OM1 7705   4.923   3.797   0.440  0.0000  0.0000  0.0000
 7706OM     OM1 7706   9.405   0.668   8.821  0.0000  0.0000  0.0000
 7707OM     OM1 7707   9.326   0.425   8.757  0.0000  0.0000  0.0000
 7708OM     OM1 7708   6.248   8.347   1.255  0.0000  0.0000  0.0000
 7709OM     OM1 7709   6.307   8.187   1.043  0.0000  0.0000  0.0000
 7710OM     OM1 7710   6.068   8.231   1.109  0.0000  0.0000  0.0000
 7711OM     OM1 7711   5.385   7.886   8.368  0.0000  0.0000  0.0000
 7712OM     OM1 7712   5.226   8.096   8.384  0.0000  0.0000  0.0000
 7713OM     OM1 7713   0.286   3.270   0.893  0.0000  0.0000  0.0000
 7714OM     OM1 7714   0.369   3.341   1.134  0.0000  0.0000  0.0000
 7715OM     OM1 7715   6.298   3.640   0.540  0.0000  0.0000  0.0000
 7716OM     OM1 7716   6.297   3.877   0.443  0.0000  0.0000  0.0000
 7717OM     OM1 7717   6.252   3.846   0.696  0.0000  0.0000  0.0000
 7718OM     OM1 7718   3.894   3.942   9.200  0.0000  0.0000  0.0000
 7719OM     OM1 7719   3.696   3.878   9.356  0.0000  0.0000  0.0000
 7720OM     OM1 7720   3.885   3.704   9.314  0.0000  0.0000  0.0000
 7721OM     OM1 7721   9.370   0.153   8.767  0.0000  0.0000  0.0000
 7722OM     OM1 7722   6.602   2.503   9.447  0.0000  0.0000  0.0000
 7723OM     OM1 7723   6.769   2.341   9.574  0.0000  0.0000  0.0000
 7724OM     OM1 7724   6.867   2.540   9.443  0.0000  0.0000  0.0000
 7725OM     OM1 7725   6.733   2.582   0.057  0.0000  0.0000  0.0000
 7726OM     OM1 7726   8.692   1.059   1.041  0.0000  0.0000  0.0000
 7727OM     OM1 7727   8.455   1.152   1.000  0.0000  0.0000  0.0000
 7728OM     OM1 7728   8.614   1.071   0.805  0.0000  0.0000  0.0000
 7729OM     OM1 7729   4.401   1.213   1.040  0.0000  0.0000  0.0000
 7730OM     OM1 7730   4.166   1.152   1.118  0.0000  0.0000  0.0000
 7731OM     OM1 7731   9.514   9.306   0.445  0.0000  0.0000  0.0000
 7732OM     OM1 7732   9.008   7.548   1.340  0.0000  0.0000  0.0000
 7733OM     OM1 7733   9.210   7.630   1.208  0.0000  0.0000  0.0000
 7734OM     OM1 7734   9.148   7.377   1.178  0.0000  0.0000  0.0000
 7735OM     OM1 7735   6.353   1.401   0.465  0.0000  0.0000  0.0000
 7736OM     OM1 7736   6.404   1.320   0.229  0.0000  0.0000  0.0000
 7737OM     OM1 7737   6.512   1.540   0.317  0.0000  0.0000  0.0000
 7738OM     OM1 7738   6.909   0.804   0.395  0.0000  0.0000  0.0000
 7739OM     OM1 7739   6.877   1.264   0.290  0.0000  0.0000  0.0000
 7740OM     OM1 7740   6.703   0.860   0.243  0.0000  0.0000  0.0000
 7741OM     OM1 7741   3.664   2.225   8.668  0.0000  0.0000  0.0000
 7742OM     OM1 7742   3.472   2.062   8.601  0.0000  0.0000  0.0000
 7743OM     OM1 7743   3.419   2.284   8.753  0.0000  0.0000  0.0000
 7744OM     OM1 7744   3.554   2.088   8.844  0.0000  0.0000  0.0000
 7745OM     OM1 7745   4.478   5.220   9.336  0.0000  0.0000  0.0000
 7746OM     OM1 7746   3.564   1.339   0.313  0.0000  0.0000  0.0000
 7747OM     OM1 7747   3.731   1.430   0.485  0.0000  0.0000  0.0000
 7748OM     OM1 7748   3.474   1.535   0.458  0.0000  0.0000  0.0000
 7749OM     OM1 7749   3.664   1.573   0.282  0.0000  0.0000  0.0000
 7750OM     OM1 7750   2.314   2.766   9.587  0.0000  0.0000  0.0000
 7751OM     OM1 7751   2.379   2.678   9.348  0.0000  0.0000  0.0000
 7752OM     OM1 7752   4.382   1.900   0.478  0.0000  0.0000  0.0000
 7753OM     OM1 7753   4.574   1.790   0.353  0.0000  0.0000  0.0000
 7754OM     OM1 7754   4.481   2.036   0.287  0.0000  0.0000  0.0000
 7755OM     OM1 7755   9.199   5.508   0.811  0.0000  0.0000  0.0000
 7756OM     OM1 7756   9.449   5.537   0.904  0.0000  0.0000  0.0000
 7757OM     OM1 7757   9.269   5.728   0.910  0.0000  0.0000  0.0000
 7758OM     OM1 7758   5.297   7.104   0.830  0.0000  0.0000  0.0000
 7759OM     OM1 7759   5.132   7.416   0.965  0.0000  0.0000  0.0000
 7760OM     OM1 7760   7.426   9.279   0.451  0.0000  0.0000  0.0000
 7761OM     OM1 7761   7.696   9.560   0.180  0.0000  0.0000  0.0000
 7762OM     OM1 7762   1.116   8.805   1.107  0.0000  0.0000  0.0000
 7763OM     OM1 7763   1.081   8.600   1.263  0.0000  0.0000  0.0000
 7764OM     OM1 7764   0.903   8.717   1.004  0.0000  0.0000  0.0000
 7765OM     OM1 7765   8.880   0.594   8.760  0.0000  0.0000  0.0000
 7766OM     OM1 7766   8.877   0.206   8.756  0.0000  0.0000  0.0000
 7767OM     OM1 7767   9.133   0.265   8.780  0.0000  0.0000  0.0000
 7768OM     OM1 7768   5.292   2.349   9.287  0.0000  0.0000  0.0000
 7769OM     OM1 7769   6.335   4.897   8.395  0.0000  0.0000  0.0000
 7770OM     OM1 7770   6.317   5.112   8.231  0.0000  0.0000  0.0000
 7771OM     OM1 7771   3.893   0.872   1.238  0.0000  0.0000  0.0000
 7772OM     OM1 7772   3.831   0.627   1.276  0.0000  0.0000  0.0000
 7773OM     OM1 7773   3.852   0.712   1.035  0.0000  0.0000  0.0000
 7774OM     OM1 7774   9.003   7.125   0.665  0.0000  0.0000  0.0000
 7775OM     OM1 7775   9.154   6.814   0.443  0.0000  0.0000  0.0000
 7776OM     OM1 7776   9.211   6.969   0.651  0.0000  0.0000  0.0000
 7777OM     OM1 7777   8.144   6.017   0.735  0.0000  0.0000  0.0000
 7778OM     OM1 7778   2.361   8.855   0.495  0.0000  0.0000  0.0000
 7779OM     OM1 7779   2.519   9.052   0.555  0.0000  0.0000  0.0000
 7780OM     OM1 7780   7.964   4.413   9.307  0.0000  0.0000  0.0000
 7781OM     OM1 7781   7.773   4.817   9.230  0.0000  0.0000  0.0000
 7782OM     OM1 7782   7.853   4.489   9.075  0.0000  0.0000  0.0000
 7783OM     OM1 7783   1.212   8.386   1.223  0.0000  0.0000  0.0000
 7784OM     OM1 7784   0.946   8.152   0.996  0.0000  0.0000  0.0000
 7785OM     OM1 7785   0.964   8.371   1.159  0.0000  0.0000  0.0000
 7786OM     OM1 7786   7.368   4.076   0.907  0.0000  0.0000  0.0000
 7787OM     OM1 7787   7.626   4.092   0.949  0.0000  0.0000  0.0000
 7788OM     OM1 7788   8.993   0.944   8.404  0.0000  0.0000  0.0000
 7789OM     OM1 7789   9.019   1.010   8.654  0.0000  0.0000  0.0000
 7790OM     OM1 7790   9.000   0.760   8.587  0.0000  0.0000  0.0000
 7791OM     OM1 7791   2.827   2.725   0.214  0.0000  0.0000  0.0000
 7792OM     OM1 7792   8.570   9.276   9.104  0.0000  0.0000  0.0000
 7793OM     OM1 7793   9.005   4.917   9.432  0.0000  0.0000  0.0000
 7794OM     OM1 7794   8.994   4.884   0.076  0.0000  0.0000  0.0000
 7795OM     OM1 7795   8.844   5.069   9.580  0.0000  0.0000  0.0000
 7796OM     OM1 7796   1.496   5.541   0.478  0.0000  0.0000  0.0000
 7797OM     OM1 7797   1.734   5.469   0.521  0.0000  0.0000  0.0000
 7798OM     OM1 7798   5.451   7.898   9.213  0.0000  0.0000  0.0000
 7799OM     OM1 7799   5.559   8.140   9.187  0.0000  0.0000  0.0000
 7800OM     OM1 7800   8.875   3.177   1.249  0.0000  0.0000  0.0000
 7801OM     OM1 7801   9.497   5.134   0.748  0.0000  0.0000  0.0000
 7802OM     OM1 7802   0.044   4.965   0.640  0.0000  0.0000  0.0000
 7803OM     OM1 7803   7.825   4.415   0.589  0.0000  0.0000  0.0000
 7804OM     OM1 7804   6.621   4.787   0.597  0.0000  0.0000  0.0000
 7805OM     OM1 7805   8.412   9.197   1.450  0.0000  0.0000  0.0000
 7806OM     OM1 7806   8.360   8.981   1.326  0.0000  0.0000  0.0000
 7807OM     OM1 7807   8.308   4.543   8.285  0.0000  0.0000  0.0000
 7808OM     OM1 7808   2.568   0.653   9.333  0.0000  0.0000  0.0000
 7809OM     OM1 7809   2.586   0.439   9.175  0.0000  0.0000  0.0000
 7810OM     OM1 7810   2.489   0.664   9.084  0.0000  0.0000  0.0000
 7811OM     OM1 7811   2.353   0.525   9.258  0.0000  0.0000  0.0000
 7812OM     OM1 7812   1.332   4.354   1.259  0.0000  0.0000  0.0000
 7813OM     OM1 7813   1.409   4.568   1.383  0.0000  0.0000  0.0000
 7814OM     OM1 7814   0.079   1.351   8.913  0.0000  0.0000  0.0000
 7815OM     OM1 7815   0.299   1.469   8.836  0.0000  0.0000  0.0000
 7816OM     OM1 7816   2.343   8.075   8.761  0.0000  0.0000  0.0000
 7817OM     OM1 7817   2.187   8.221   8.902  0.0000  0.0000  0.0000
 7818OM     OM1 7818   4.091   6.370   1.311  0.0000  0.0000  0.0000
 7819OM     OM1 7819   3.929   6.359   1.106  0.0000  0.0000  0.0000
 7820OM     OM1 7820   5.339   3.623   0.204  0.0000  0.0000  0.0000
 7821OM     OM1 7821   2.219   3.872   9.391  0.0000  0.0000  0.0000
 7822OM     OM1 7822   2.175   4.039   9.184  0.0000  0.0000  0.0000
 7823OM     OM1 7823   0.134   7.906   9.578  0.0000  0.0000  0.0000
 7824OM     OM1 7824   0.229   7.685   0.092  0.0000  0.0000  0.0000
 7825OM     OM1 7825   0.309   7.927   0.168  0.0000  0.0000  0.0000
 7826OM     OM1 7826   0.374   2.729   0.371  0.0000  0.0000  0.0000
 7827OM     OM1 7827   0.466   2.491   0.278  0.0000  0.0000  0.0000
 7828OM     OM1 7828   7.893   0.206   0.321  0.0000  0.0000  0.0000
 7829OM     OM1 7829   7.885   0.099   0.086  0.0000  0.0000  0.0000
 7830OM     OM1 7830   2.186   3.129   8.879  0.0000  0.0000  0.0000
 7831OM     OM1 7831   2.214   3.319   9.056  0.0000  0.0000  0.0000
 7832OM     OM1 7832   5.808   2.901   0.823  0.0000  0.0000  0.0000
 7833OM     OM1 7833   5.764   3.069   0.638  0.0000  0.0000  0.0000
 7834OM     OM1 7834   4.368   5.412   1.124  0.0000  0.0000  0.0000
 7835OM     OM1 7835   4.205   5.608   1.194  0.0000  0.0000  0.0000
 7836OM     OM1 7836   4.464   5.649   1.192  0.0000  0.0000  0.0000
 7837OM     OM1 7837   6.225   6.850   9.216  0.0000  0.0000  0.0000
 7838OM     OM1 7838   6.347   6.865   9.445  0.0000  0.0000  0.0000
 7839OM     OM1 7839   4.231   5.636   9.147  0.0000  0.0000  0.0000
 7840OM     OM1 7840   4.041   0.722   0.008  0.0000  0.0000  0.0000
 7841OM     OM1 7841   4.049   0.831   0.245  0.0000  0.0000  0.0000
 7842OM     OM1 7842   6.469   0.120   8.293  0.0000  0.0000  0.0000
 7843OM     OM1 7843   0.947   7.329   8.280  0.0000  0.0000  0.0000
 7844OM     OM1 7844   0.679   7.361   8.346  0.0000  0.0000  0.0000
 7845OM     OM1 7845   0.845   7.207   8.476  0.0000  0.0000  0.0000
 7846OM     OM1 7846   9.568   1.062   1.006  0.0000  0.0000  0.0000
 7847OM     OM1 7847   0.134   1.189   0.853  0.0000  0.0000  0.0000
 7848OM     OM1 7848   9.561   1.378   0.864  0.0000  0.0000  0.0000
 7849OM     OM1 7849   0.186   1.391   1.000  0.0000  0.0000  0.0000
 7850OM     OM1 7850   0.126   4.098   8.706  0.0000  0.0000  0.0000
 7851OM     OM1 7851   0.023   4.148   8.345  0.0000  0.0000  0.0000
 7852OM     OM1 7852   0.117   3.955   8.482  0.0000  0.0000  0.0000
 7853OM     OM1 7853   6.839   7.084   0.214  0.0000  0.0000  0.0000
 7854OM     OM1 7854   3.866   7.681   0.885  0.0000  0.0000  0.0000
 7855OM     OM1 7855   4.033   7.858   0.940  0.0000  0.0000  0.0000
 7856OM     OM1 7856   1.751   6.287   0.591  0.0000  0.0000  0.0000
 7857OM     OM1 7857   1.576   6.481   0.614  0.0000  0.0000  0.0000
 7858OM     OM1 7858   1.724   6.416   0.820  0.0000  0.0000  0.0000
 7859OM     OM1 7859   5.136   3.174   1.326  0.0000  0.0000  0.0000
 7860OM     OM1 7860   4.958   7.692   8.333  0.0000  0.0000  0.0000
 7861OM     OM1 7861   5.203   7.719   8.456  0.0000  0.0000  0.0000
 7862OM     OM1 7862   0.630   9.383   1.139  0.0000  0.0000  0.0000
 7863OM     OM1 7863   0.635   9.152   1.269  0.0000  0.0000  0.0000
 7864OM     OM1 7864   0.431   9.233   1.129  0.0000  0.0000  0.0000
 7865OM     OM1 7865   2.180   0.614   0.802  0.0000  0.0000  0.0000
 7866OM     OM1 7866   2.309   0.739   0.606  0.0000  0.0000  0.0000
 7867OM     OM1 7867   2.065   0.644   0.577  0.0000  0.0000  0.0000
 7868OM     OM1 7868   2.117   0.859   0.728  0.0000  0.0000  0.0000
 7869OM     OM1 7869   3.119   7.761   8.910  0.0000  0.0000  0.0000
 7870OM     OM1 7870   3.138   7.569   9.099  0.0000  0.0000  0.0000
 7871OM     OM1 7871   4.681   4.521   9.233  0.0000  0.0000  0.0000
 7872OM     OM1 7872   4.705   4.779   9.243  0.0000  0.0000  0.0000
 7873OM     OM1 7873   8.439   6.178   8.686  0.0000  0.0000  0.0000
 7874OM     OM1 7874   8.614   6.271   8.523  0.0000  0.0000  0.0000
 7875OM     OM1 7875   9.401   7.778   0.812  0.0000  0.0000  0.0000
 7876OM     OM1 7876   9.399   8.029   0.904  0.0000  0.0000  0.0000
 7877OM     OM1 7877   9.309   7.830   1.053  0.0000  0.0000  0.0000
 7878OM     OM1 7878   3.674   1.729   0.985  0.0000  0.0000  0.0000
 7879OM     OM1 7879   3.556   1.964   0.947  0.0000  0.0000  0.0000
 7880OM     OM1 7880   3.705   1.867   0.760  0.0000  0.0000  0.0000
 7881OM     OM1 7881   3.690   5.800   0.312  0.0000  0.0000  0.0000
 7882OM     OM1 7882   3.688   5.643   0.096  0.0000  0.0000  0.0000
 7883OM     OM1 7883   2.202   2.263   8.991  0.0000  0.0000  0.0000
 7884OM     OM1 7884   2.079   2.086   8.841  0.0000  0.0000  0.0000
 7885OM     OM1 7885   2.240   2.004   9.024  0.0000  0.0000  0.0000
 7886OM     OM1 7886   4.683   3.739   0.357  0.0000  0.0000  0.0000
 7887OM     OM1 7887   4.517   3.669   0.175  0.0000  0.0000  0.0000
 7888OM     OM1 7888   4.440   3.832   0.374  0.0000  0.0000  0.0000
 7889OM     OM1 7889   5.562   1.191   9.125  0.0000  0.0000  0.0000
 7890OM     OM1 7890   5.551   1.058   9.353  0.0000  0.0000  0.0000
 7891OM     OM1 7891   5.390   1.004   9.146  0.0000  0.0000  0.0000
 7892OM     OM1 7892   5.529   6.675   8.733  0.0000  0.0000  0.0000
 7893OM     OM1 7893   5.550   6.931   8.700  0.0000  0.0000  0.0000
 7894OM     OM1 7894   5.698   6.811   8.878  0.0000  0.0000  0.0000
 7895OM     OM1 7895   1.980   6.718   1.121  0.0000  0.0000  0.0000
 7896OM     OM1 7896   1.796   6.539   1.043  0.0000  0.0000  0.0000
 7897OM     OM1 7897   1.767   6.681   1.258  0.0000  0.0000  0.0000
 7898OM     OM1 7898   8.656   8.532   0.598  0.0000  0.0000  0.0000
 7899OM     OM1 7899   8.559   8.312   0.725  0.0000  0.0000  0.0000
 7900OM     OM1 7900   8.710   8.290   0.519  0.0000  0.0000  0.0000
 7901OM     OM1 7901   2.944   0.632   0.592  0.0000  0.0000  0.0000
 7902OM     OM1 7902   8.496   4.099   9.516  0.0000  0.0000  0.0000
 7903OM     OM1 7903   8.581   4.315   9.400  0.0000  0.0000  0.0000
 7904OM     OM1 7904   9.373   0.603   9.262  0.0000  0.0000  0.0000
 7905OM     OM1 7905   9.527   0.628   9.049  0.0000  0.0000  0.0000
 7906OM     OM1 7906   8.004   9.005   0.193  0.0000  0.0000  0.0000
 7907OM     OM1 7907   8.027   9.266   0.142  0.0000  0.0000  0.0000
 7908OM     OM1 7908   3.322   7.167   1.347  0.0000  0.0000  0.0000
 7909OM     OM1 7909   2.014   8.521   8.385  0.0000  0.0000  0.0000
 7910OM     OM1 7910   2.208   8.366   8.450  0.0000  0.0000  0.0000
 7911OM     OM1 7911   7.934   2.698   0.619  0.0000  0.0000  0.0000
 7912OM     OM1 7912   7.810   2.874   0.770  0.0000  0.0000  0.0000
 7913OM     OM1 7913   4.281   7.953   0.969  0.0000  0.0000  0.0000
 7914OM     OM1 7914   4.097   8.070   0.834  0.0000  0.0000  0.0000
 7915OM     OM1 7915   4.201   7.851   0.737  0.0000  0.0000  0.0000
 7916OM     OM1 7916   5.517   4.164   0.573  0.0000  0.0000  0.0000
 7917OM     OM1 7917   5.385   4.015   0.414  0.0000  0.0000  0.0000
 7918OM     OM1 7918   2.924   0.213   0.418  0.0000  0.0000  0.0000
 7919OM     OM1 7919   2.978   0.381   0.602  0.0000  0.0000  0.0000
 7920OM     OM1 7920   3.150   0.331   0.398  0.0000  0.0000  0.0000
 7921OM     OM1 7921   0.007   3.632   8.792  0.0000  0.0000  0.0000
 7922OM     OM1 7922   9.460   3.423   8.815  0.0000  0.0000  0.0000
 7923OM     OM1 7923   6.274   1.506   9.383  0.0000  0.0000  0.0000
 7924OM     OM1 7924   6.143   1.716   9.289  0.0000  0.0000  0.0000
 7925OM     OM1 7925   6.047   1.463   9.261  0.0000  0.0000  0.0000
 7926OM     OM1 7926   1.558   7.544   8.699  0.0000  0.0000  0.0000
 7927OM     OM1 7927   2.815   6.134   0.919  0.0000  0.0000  0.0000
 7928OM     OM1 7928   2.561   6.169   0.836  0.0000  0.0000  0.0000
 7929OM     OM1 7929   0.106   6.796   9.532  0.0000  0.0000  0.0000
 7930OM     OM1 7930   0.297   6.677   0.047  0.0000  0.0000  0.0000
 7931OM     OM1 7931   0.049   6.588   0.081  0.0000  0.0000  0.0000
 7932OM     OM1 7932   6.991   4.717   8.545  0.0000  0.0000  0.0000
 7933OM     OM1 7933   6.847   4.593   8.366  0.0000  0.0000  0.0000
 7934OM     OM1 7934   5.000   2.043   0.560  0.0000  0.0000  0.0000
 7935OM     OM1 7935   4.753   2.117   0.635  0.0000  0.0000  0.0000
 7936OM     OM1 7936   4.862   1.907   0.736  0.0000  0.0000  0.0000
 7937OM     OM1 7937   5.900   6.937   8.974  0.0000  0.0000  0.0000
 7938OM     OM1 7938   5.879   6.918   8.722  0.0000  0.0000  0.0000
 7939OM     OM1 7939   5.941   6.705   8.863  0.0000  0.0000  0.0000
 7940OM     OM1 7940   2.221   0.288   8.731  0.0000  0.0000  0.0000
 7941OM     OM1 7941   2.367   0.470   8.627  0.0000  0.0000  0.0000
 7942OM     OM1 7942   8.369   5.891   0.786  0.0000  0.0000  0.0000
 7943OM     OM1 7943   7.321   2.808   0.503  0.0000  0.0000  0.0000
 7944OM     OM1 7944   7.432   2.896   0.731  0.0000  0.0000  0.0000
 7945OM     OM1 7945   2.918   6.434   8.413  0.0000  0.0000  0.0000
 7946OM     OM1 7946   6.714   2.727   8.887  0.0000  0.0000  0.0000
 7947OM     OM1 7947   6.924   2.807   8.746  0.0000  0.0000  0.0000
 7948OM     OM1 7948   6.782   2.599   8.676  0.0000  0.0000  0.0000
 7949OM     OM1 7949   8.488   7.903   9.050  0.0000  0.0000  0.0000
 7950OM     OM1 7950   3.672   0.667   8.764  0.0000  0.0000  0.0000
 7951OM     OM1 7951   8.321   8.436   9.148  0.0000  0.0000  0.0000
 7952OM     OM1 7952   8.109   8.322   9.021  0.0000  0.0000  0.0000
 7953OM     OM1 7953   8.347   8.342   8.908  0.0000  0.0000  0.0000
 7954OM     OM1 7954   4.666   1.295   8.570  0.0000  0.0000  0.0000
 7955OM     OM1 7955   6.307   7.732   9.551  0.0000  0.0000  0.0000
 7956OM     OM1 7956   5.048   6.314   1.102  0.0000  0.0000  0.0000
 7957OM     OM1 7957   5.624   4.838   0.604  0.0000  0.0000  0.0000
 7958OM     OM1 7958   5.697   4.594   0.526  0.0000  0.0000  0.0000
 7959OM     OM1 7959   5.858   4.802   0.498  0.0000  0.0000  0.0000
 7960OM     OM1 7960   8.334   6.073   9.414  0.0000  0.0000  0.0000
 7961OM     OM1 7961   8.312   6.125   9.164  0.0000  0.0000  0.0000
 7962OM     OM1 7962   4.225   4.570   9.429  0.0000  0.0000  0.0000
 7963OM     OM1 7963   4.791   6.095   0.532  0.0000  0.0000  0.0000
 7964OM     OM1 7964   4.862   6.025   0.767  0.0000  0.0000  0.0000
 7965OM     OM1 7965   4.602   5.996   0.669  0.0000  0.0000  0.0000
 7966OM     OM1 7966   4.795   5.842   0.589  0.0000  0.0000  0.0000
 7967OM     OM1 7967   1.611   7.278   0.325  0.0000  0.0000  0.0000
 7968OM     OM1 7968   1.782   7.234   0.531  0.0000  0.0000  0.0000
 7969OM     OM1 7969   8.252   4.468   9.015  0.0000  0.0000  0.0000
 7970OM     OM1 7970   8.205   4.370   9.253  0.0000  0.0000  0.0000
 7971OM     OM1 7971   8.104   4.264   9.028  0.0000  0.0000  0.0000
 7972OM     OM1 7972   8.227   1.541   9.077  0.0000  0.0000  0.0000
 7973OM     OM1 7973   8.092   1.746   9.153  0.0000  0.0000  0.0000
 7974OM     OM1 7974   8.290   1.665   9.298  0.0000  0.0000  0.0000
 7975OM     OM1 7975   6.211   4.735   9.078  0.0000  0.0000  0.0000
 7976OM     OM1 7976   6.165   4.817   8.831  0.0000  0.0000  0.0000
 7977OM     OM1 7977   3.019   7.333   9.115  0.0000  0.0000  0.0000
 7978OM     OM1 7978   2.327   5.612   1.270  0.0000  0.0000  0.0000
 7979OM     OM1 7979   2.590   5.610   1.293  0.0000  0.0000  0.0000
 7980OM     OM1 7980   2.450   5.402   1.373  0.0000  0.0000  0.0000
 7981OM     OM1 7981   1.500   1.115   1.197  0.0000  0.0000  0.0000
 7982OM     OM1 7982   3.325   1.094   9.318  0.0000  0.0000  0.0000
 7983OM     OM1 7983   3.395   1.315   9.445  0.0000  0.0000  0.0000
 7984OM     OM1 7984   6.324   2.987   9.553  0.0000  0.0000  0.0000
 7985OM     OM1 7985   6.356   3.114   9.326  0.0000  0.0000  0.0000
 7986OM     OM1 7986   1.691   8.610   9.567  0.0000  0.0000  0.0000
 7987OM     OM1 7987   1.919   8.478   0.001  0.0000  0.0000  0.0000
 7988OM     OM1 7988   1.907   8.690   9.461  0.0000  0.0000  0.0000
 7989OM     OM1 7989   9.261   6.256   0.907  0.0000  0.0000  0.0000
 7990OM     OM1 7990   9.261   6.139   1.130  0.0000  0.0000  0.0000
 7991OM     OM1 7991   9.289   6.402   1.125  0.0000  0.0000  0.0000
 7992OM     OM1 7992   1.934   0.862   0.414  0.0000  0.0000  0.0000
 7993OM     OM1 7993   1.846   0.628   0.442  0.0000  0.0000  0.0000
 7994OM     OM1 7994   5.643   7.555   9.361  0.0000  0.0000  0.0000
 7995OM     OM1 7995   4.823   8.134   0.305  0.0000  0.0000  0.0000
 7996OM     OM1 7996   4.690   8.079   0.524  0.0000  0.0000  0.0000
 7997OM     OM1 7997   4.807   7.884   0.410  0.0000  0.0000  0.0000
 7998OM     OM1 7998   2.445   3.183   0.776  0.0000  0.0000  0.0000
 7999OM     OM1 7999   2.443   3.424   0.883  0.0000  0.0000  0.0000
 8000OM     OM1 8000   2.668   3.314   0.782  0.0000  0.0000  0.0000
 8001OM     OM1 8001   5.340   9.319   9.154  0.0000  0.0000  0.0000
 8002OM     OM1 8002   5.178   9.311   9.353  0.0000  0.0000  0.0000
 8003OM     OM1 8003   5.432   9.244   9.398  0.0000  0.0000  0.0000
 8004OM     OM1 8004   4.195   8.024   9.075  0.0000  0.0000  0.0000
 8005OM     OM1 8005   4.200   7.836   8.897  0.0000  0.0000  0.0000
 8006OM     OM1 8006   4.066   7.798   9.117  0.0000  0.0000  0.0000
 8007OM     OM1 8007   3.975   7.973   8.946  0.0000  0.0000  0.0000
 8008OM     OM1 8008   0.432   1.324   8.656  0.0000  0.0000  0.0000
 8009OM     OM1 8009   0.564   1.457   8.839  0.0000  0.0000  0.0000
 8010OM     OM1 8010   7.320   1.490   0.891  0.0000  0.0000  0.0000
 8011OM     OM1 8011   7.263   1.717   1.010  0.0000  0.0000  0.0000
 8012OM     OM1 8012   9.212   0.226   8.294  0.0000  0.0000  0.0000
 8013OM     OM1 8013   9.112   9.600   8.300  0.0000  0.0000  0.0000
 8014OM     OM1 8014   8.289   4.790   0.818  0.0000  0.0000  0.0000
 8015OM     OM1 8015   6.658   2.027   8.962  0.0000  0.0000  0.0000
 8016OM     OM1 8016   6.398   2.038   8.988  0.0000  0.0000  0.0000
 8017OM     OM1 8017   6.532   2.005   9.206  0.0000  0.0000  0.0000
 8018OM     OM1 8018   6.530   1.819   9.017  0.0000  0.0000  0.0000
 8019OM     OM1 8019   0.114   3.092   0.775  0.0000  0.0000  0.0000
 8020OM     OM1 8020   0.018   2.871   0.693  0.0000  0.0000  0.0000
 8021OM     OM1 8021   9.467   3.036   0.838  0.0000  0.0000  0.0000
 8022OM     OM1 8022   9.524   3.101   0.599  0.0000  0.0000  0.0000
 8023OM     OM1 8023   3.389   8.472   0.926  0.0000  0.0000  0.0000
 8024OM     OM1 8024   3.643   8.469   0.976  0.0000  0.0000  0.0000
 8025OM     OM1 8025   6.669   5.089   0.211  0.0000  0.0000  0.0000
 8026OM     OM1 8026   6.912   5.016   0.224  0.0000  0.0000  0.0000
 8027OM     OM1 8027   6.715   4.892   0.374  0.0000  0.0000  0.0000
 8028OM     OM1 8028   3.946   3.548   1.084  0.0000  0.0000  0.0000
 8029OM     OM1 8029   2.692   4.180   0.895  0.0000  0.0000  0.0000
 8030OM     OM1 8030   2.493   4.070   1.041  0.0000  0.0000  0.0000
 8031OM     OM1 8031   2.570   3.983   0.800  0.0000  0.0000  0.0000
 8032OM     OM1 8032   2.715   3.944   1.012  0.0000  0.0000  0.0000
 8033OM     OM1 8033   6.957   2.725   9.289  0.0000  0.0000  0.0000
 8034OM     OM1 8034   6.734   2.747   9.146  0.0000  0.0000  0.0000
 8035OM     OM1 8035   6.822   2.943   9.294  0.0000  0.0000  0.0000
 8036OM     OM1 8036   8.501   4.665   9.057  0.0000  0.0000  0.0000
 8037OM     OM1 8037   8.747   4.609   9.117  0.0000  0.0000  0.0000
 8038OM     OM1 8038   4.296   2.527   0.498  0.0000  0.0000  0.0000
 8039OM     OM1 8039   4.070   2.606   0.396  0.0000  0.0000  0.0000
 8040OM     OM1 8040   1.360   4.849   0.407  0.0000  0.0000  0.0000
 8041OM     OM1 8041   1.329   4.946   0.168  0.0000  0.0000  0.0000
 8042OM     OM1 8042   7.634   5.590   0.132  0.0000  0.0000  0.0000
 8043OM     OM1 8043   4.859   0.402   8.163  0.0000  0.0000  0.0000
 8044OM     OM1 8044   4.728   0.596   8.235  0.0000  0.0000  0.0000
 8045OM     OM1 8045   0.948   4.377   8.230  0.0000  0.0000  0.0000
 8046OM     OM1 8046   9.570   1.961   0.614  0.0000  0.0000  0.0000
 8047OM     OM1 8047   3.625   5.702   8.928  0.0000  0.0000  0.0000
 8048OM     OM1 8048   3.754   5.517   9.054  0.0000  0.0000  0.0000
 8049OM     OM1 8049   2.191   5.770   0.857  0.0000  0.0000  0.0000
 8050OM     OM1 8050   2.371   5.902   1.009  0.0000  0.0000  0.0000
 8051OM     OM1 8051   6.032   1.195   9.278  0.0000  0.0000  0.0000
 8052OM     OM1 8052   5.948   1.339   9.060  0.0000  0.0000  0.0000
 8053OM     OM1 8053   5.445   4.882   8.642  0.0000  0.0000  0.0000
 8054OM     OM1 8054   5.691   4.809   8.573  0.0000  0.0000  0.0000
 8055OM     OM1 8055   1.866   2.099   0.381  0.0000  0.0000  0.0000
 8056OM     OM1 8056   1.765   2.250   0.199  0.0000  0.0000  0.0000
 8057OM     OM1 8057   1.603   2.118   0.374  0.0000  0.0000  0.0000
 8058OM     OM1 8058   0.281   7.567   1.171  0.0000  0.0000  0.0000
 8059OM     OM1 8059   0.469   7.733   1.111  0.0000  0.0000  0.0000
 8060OM     OM1 8060   9.200   2.385   8.703  0.0000  0.0000  0.0000
 8061OM     OM1 8061   9.031   2.301   8.525  0.0000  0.0000  0.0000
 8062OM     OM1 8062   5.461   7.577   8.818  0.0000  0.0000  0.0000
 8063OM     OM1 8063   5.484   9.018   0.504  0.0000  0.0000  0.0000
 8064OM     OM1 8064   0.975   2.142   0.224  0.0000  0.0000  0.0000
 8065OM     OM1 8065   0.833   1.934   0.298  0.0000  0.0000  0.0000
 8066OM     OM1 8066   1.081   1.909   0.218  0.0000  0.0000  0.0000
 8067OM     OM1 8067   5.597   6.750   1.418  0.0000  0.0000  0.0000
 8068OM     OM1 8068   0.391   6.596   0.977  0.0000  0.0000  0.0000
 8069OM     OM1 8069   0.236   6.432   0.868  0.0000  0.0000  0.0000
 8070OM     OM1 8070   3.881   0.814   0.450  0.0000  0.0000  0.0000
 8071OM     OM1 8071   3.803   0.769   0.210  0.0000  0.0000  0.0000
 8072OM     OM1 8072   4.714   6.710   9.337  0.0000  0.0000  0.0000
 8073OM     OM1 8073   3.155   3.535   9.228  0.0000  0.0000  0.0000
 8074OM     OM1 8074   9.600   6.396   9.525  0.0000  0.0000  0.0000
 8075OM     OM1 8075   8.174   7.521   8.921  0.0000  0.0000  0.0000
 8076OM     OM1 8076   8.427   7.442   8.921  0.0000  0.0000  0.0000
 8077OM     OM1 8077   8.281   7.456   9.146  0.0000  0.0000  0.0000
 8078OM     OM1 8078   5.649   7.548   0.547  0.0000  0.0000  0.0000
 8079OM     OM1 8079   5.711   7.736   0.726  0.0000  0.0000  0.0000
 8080OM     OM1 8080   5.863   7.526   0.700  0.0000  0.0000  0.0000
 8081OM     OM1 8081   7.533   6.519   1.340  0.0000  0.0000  0.0000
 8082OM     OM1 8082   0.809   0.928   0.857  0.0000  0.0000  0.0000
 8083OM     OM1 8083   0.859   0.673   0.878  0.0000  0.0000  0.0000
 8084OM     OM1 8084   1.116   0.836   1.188  0.0000  0.0000  0.0000
 8085OM     OM1 8085   2.270   1.785   9.162  0.0000  0.0000  0.0000
 8086OM     OM1 8086   2.478   1.931   9.068  0.0000  0.0000  0.0000
 8087OM     OM1 8087   8.730   0.000   8.719  0.0000  0.0000  0.0000
 8088OM     OM1 8088   8.715   9.345   8.755  0.0000  0.0000  0.0000
 8089OM     OM1 8089   3.064   2.777   0.836  0.0000  0.0000  0.0000
 8090OM     OM1 8090   3.278   2.682   0.941  0.0000  0.0000  0.0000
 8091OM     OM1 8091   8.653   0.240   1.271  0.0000  0.0000  0.0000
 8092OM     OM1 8092   8.618   0.008   1.176  0.0000  0.0000  0.0000
 8093OM     OM1 8093   8.868   0.103   1.245  0.0000  0.0000  0.0000
 8094OM     OM1 8094   5.470   6.693   8.488  0.0000  0.0000  0.0000
 8095OM     OM1 8095   5.368   6.850   8.302  0.0000  0.0000  0.0000
 8096OM     OM1 8096   7.219   6.522   8.449  0.0000  0.0000  0.0000
 8097OM     OM1 8097   7.367   6.323   8.359  0.0000  0.0000  0.0000
 8098OM     OM1 8098   0.014   0.100   0.024  0.0000  0.0000  0.0000
 8099OM     OM1 8099   0.080   0.406   0.401  0.0000  0.0000  0.0000
 8100OM     OM1 8100   0.192   0.287   9.544  0.0000  0.0000  0.0000
 8101OM     OM1 8101   0.095   0.290   0.173  0.0000  0.0000  0.0000
 8102OM     OM1 8102   7.440   8.472   9.456  0.0000  0.0000  0.0000
 8103OM     OM1 8103   7.268   8.463   0.041  0.0000  0.0000  0.0000
 8104OM     OM1 8104   7.306   8.686   9.527  0.0000  0.0000  0.0000
 8105OM     OM1 8105   0.894   9.123   8.444  0.0000  0.0000  0.0000
 8106OM     OM1 8106   1.123   9.020   8.495  0.0000  0.0000  0.0000
 8107OM     OM1 8107   7.657   0.474   8.793  0.0000  0.0000  0.0000
 8108OM     OM1 8108   0.842   3.651   0.206  0.0000  0.0000  0.0000
 8109OM     OM1 8109   0.897   3.540   0.436  0.0000  0.0000  0.0000
 8110OM     OM1 8110   0.838   3.799   0.421  0.0000  0.0000  0.0000
 8111OM     OM1 8111   6.118   5.933   1.145  0.0000  0.0000  0.0000
 8112OM     OM1 8112   5.912   5.914   1.011  0.0000  0.0000  0.0000
 8113OM     OM1 8113   9.247   5.027   0.773  0.0000  0.0000  0.0000
 8114OM     OM1 8114   9.229   4.935   0.541  0.0000  0.0000  0.0000
 8115OM     OM1 8115   8.868   5.203   0.483  0.0000  0.0000  0.0000
 8116OM     OM1 8116   0.409   6.914   8.581  0.0000  0.0000  0.0000
 8117OM     OM1 8117   0.662   0.707   9.356  0.0000  0.0000  0.0000
 8118OM     OM1 8118   0.512   0.791   9.174  0.0000  0.0000  0.0000
 8119OM     OM1 8119   8.520   4.301   0.794  0.0000  0.0000  0.0000
 8120OM     OM1 8120   8.628   4.059   0.802  0.0000  0.0000  0.0000
 8121OM     OM1 8121   8.394   4.099   0.685  0.0000  0.0000  0.0000
 8122OM     OM1 8122   6.033   3.909   0.279  0.0000  0.0000  0.0000
 8123OM     OM1 8123   1.838   1.354   9.042  0.0000  0.0000  0.0000
 8124OM     OM1 8124   1.787   1.153   9.205  0.0000  0.0000  0.0000
 8125OM     OM1 8125   0.332   3.465   9.344  0.0000  0.0000  0.0000
 8126OM     OM1 8126   0.285   3.505   9.596  0.0000  0.0000  0.0000
 8127OM     OM1 8127   1.795   8.905   9.380  0.0000  0.0000  0.0000
 8128OM     OM1 8128   1.848   8.914   9.123  0.0000  0.0000  0.0000
 8129OM     OM1 8129   1.613   8.986   9.209  0.0000  0.0000  0.0000
 8130OM     OM1 8130   9.474   4.842   0.493  0.0000  0.0000  0.0000
 8131OM     OM1 8131   9.316   4.926   0.295  0.0000  0.0000  0.0000
 8132OM     OM1 8132   1.837   4.501   9.066  0.0000  0.0000  0.0000
 8133OM     OM1 8133   1.943   4.473   8.823  0.0000  0.0000  0.0000
 8134OM     OM1 8134   4.948   3.234   1.150  0.0000  0.0000  0.0000
 8135OM     OM1 8135   5.186   3.227   1.072  0.0000  0.0000  0.0000
 8136OM     OM1 8136   1.165   7.907   0.313  0.0000  0.0000  0.0000
 8137OM     OM1 8137   1.335   8.028   0.163  0.0000  0.0000  0.0000
 8138OM     OM1 8138   1.278   8.122   0.403  0.0000  0.0000  0.0000
 8139OM     OM1 8139   1.158   4.426   0.435  0.0000  0.0000  0.0000
 8140OM     OM1 8140   1.078   4.671   0.420  0.0000  0.0000  0.0000
 8141OM     OM1 8141   1.266   4.587   0.249  0.0000  0.0000  0.0000
 8142OM     OM1 8142   6.925   8.434   8.522  0.0000  0.0000  0.0000
 8143OM     OM1 8143   9.439   8.022   8.556  0.0000  0.0000  0.0000
 8144OM     OM1 8144   9.559   8.228   8.653  0.0000  0.0000  0.0000
 8145OM     OM1 8145   1.707   7.499   0.000  0.0000  0.0000  0.0000
 8146OM     OM1 8146   2.089   1.708   0.170  0.0000  0.0000  0.0000
 8147OM     OM1 8147   2.060   1.450   0.181  0.0000  0.0000  0.0000
 8148OM     OM1 8148   5.799   6.230   0.912  0.0000  0.0000  0.0000
 8149OM     OM1 8149   5.697   6.111   0.718  0.0000  0.0000  0.0000
 8150OM     OM1 8150   1.051   8.881   0.861  0.0000  0.0000  0.0000
 8151OM     OM1 8151   1.364   3.874   0.017  0.0000  0.0000  0.0000
 8152OM     OM1 8152   1.391   3.959   9.373  0.0000  0.0000  0.0000
 8153OM     OM1 8153   6.081   4.682   1.230  0.0000  0.0000  0.0000
 8154OM     OM1 8154   4.236   2.633   9.555  0.0000  0.0000  0.0000
 8155OM     OM1 8155   4.278   2.827   0.139  0.0000  0.0000  0.0000
 8156OM     OM1 8156   4.356   2.536   9.350  0.0000  0.0000  0.0000
 8157OM     OM1 8157   4.367   2.843   9.493  0.0000  0.0000  0.0000
 8158OM     OM1 8158   5.851   3.836   8.599  0.0000  0.0000  0.0000
 8159OM     OM1 8159   6.022   3.677   8.491  0.0000  0.0000  0.0000
 8160OM     OM1 8160   8.440   2.773   0.442  0.0000  0.0000  0.0000
 8161OM     OM1 8161   8.413   2.854   0.765  0.0000  0.0000  0.0000
 8162OM     OM1 8162   8.290   2.673   0.626  0.0000  0.0000  0.0000
 8163OM     OM1 8163   6.042   1.509   8.872  0.0000  0.0000  0.0000
 8164OM     OM1 8164   5.876   1.323   8.804  0.0000  0.0000  0.0000
 8165OM     OM1 8165   3.219   3.223   0.065  0.0000  0.0000  0.0000
 8166OM     OM1 8166   3.036   3.368   0.413  0.0000  0.0000  0.0000
 8167OM     OM1 8167   5.616   6.297   0.091  0.0000  0.0000  0.0000
 8168OM     OM1 8168   0.750   4.825   8.808  0.0000  0.0000  0.0000
 8169OM     OM1 8169   5.606   5.617   0.134  0.0000  0.0000  0.0000
 8170OM     OM1 8170   5.675   5.390   0.254  0.0000  0.0000  0.0000
 8171OM     OM1 8171   5.601   5.392   0.005  0.0000  0.0000  0.0000
 8172OM     OM1 8172   4.537   5.937   8.307  0.0000  0.0000  0.0000
 8173OM     OM1 8173   4.709   6.096   8.195  0.0000  0.0000  0.0000
 8174OM     OM1 8174   4.588   6.188   8.391  0.0000  0.0000  0.0000
 8175OM     OM1 8175   1.011   6.207   0.901  0.0000  0.0000  0.0000
 8176OM     OM1 8176   0.781   6.314   0.908  0.0000  0.0000  0.0000
 8177OM     OM1 8177   0.808   6.049   0.864  0.0000  0.0000  0.0000
 8178OM     OM1 8178   0.845   6.151   1.098  0.0000  0.0000  0.0000
 8179OM     OM1 8179   3.847   1.532   9.087  0.0000  0.0000  0.0000
 8180OM     OM1 8180   3.800   1.675   9.291  0.0000  0.0000  0.0000
 8181OM     OM1 8181   3.883   1.438   9.331  0.0000  0.0000  0.0000
 8182OM     OM1 8182   4.050   1.617   9.232  0.0000  0.0000  0.0000
 8183OM     OM1 8183   6.427   4.379   9.513  0.0000  0.0000  0.0000
 8184OM     OM1 8184   6.610   4.362   9.326  0.0000  0.0000  0.0000
 8185OM     OM1 8185   8.927   3.162   9.345  0.0000  0.0000  0.0000
 8186OM     OM1 8186   8.225   3.875   9.409  0.0000  0.0000  0.0000
 8187OM     OM1 8187   8.382   3.893   0.014  0.0000  0.0000  0.0000
 8188OM     OM1 8188   8.450   3.740   9.419  0.0000  0.0000  0.0000
 8189OM     OM1 8189   1.571   4.293   8.924  0.0000  0.0000  0.0000
 8190OM     OM1 8190   1.388   4.416   8.791  0.0000  0.0000  0.0000
 8191OM     OM1 8191   1.512   4.550   8.984  0.0000  0.0000  0.0000
 8192OM     OM1 8192   5.439   7.233   9.232  0.0000  0.0000  0.0000
 8193OM     OM1 8193   5.333   7.011   9.208  0.0000  0.0000  0.0000
 8194OM     OM1 8194   5.317   7.164   9.000  0.0000  0.0000  0.0000
 8195OM     OM1 8195   0.990   7.883   0.115  0.0000  0.0000  0.0000
 8196OM     OM1 8196   0.918   7.836   0.362  0.0000  0.0000  0.0000
 8197OM     OM1 8197   2.182   6.735   0.383  0.0000  0.0000  0.0000
 8198OM     OM1 8198   4.857   2.425   8.229  0.0000  0.0000  0.0000
 8199OM     OM1 8199   6.896   0.160   0.186  0.0000  0.0000  0.0000
 8200OM     OM1 8200   6.667   0.218   0.106  0.0000  0.0000  0.0000
 8201OM     OM1 8201   6.832   0.412   0.158  0.0000  0.0000  0.0000
 8202OM     OM1 8202   3.657   0.167   0.018  0.0000  0.0000  0.0000
 8203OM     OM1 8203   8.168   3.111   8.822  0.0000  0.0000  0.0000
 8204OM     OM1 8204   8.059   3.089   9.063  0.0000  0.0000  0.0000
 8205OM     OM1 8205   4.278   4.228   9.032  0.0000  0.0000  0.0000
 8206OM     OM1 8206   4.043   4.111   9.057  0.0000  0.0000  0.0000
 8207OM     OM1 8207   4.261   3.986   9.121  0.0000  0.0000  0.0000
 8208OM     OM1 8208   2.894   4.926   9.205  0.0000  0.0000  0.0000
 8209OM     OM1 8209   2.996   5.073   9.389  0.0000  0.0000  0.0000
 8210OM     OM1 8210   3.208   8.707   8.450  0.0000  0.0000  0.0000
 8211OM     OM1 8211   5.111   0.565   0.621  0.0000  0.0000  0.0000
 8212OM     OM1 8212   5.715   4.221   8.369  0.0000  0.0000  0.0000
 8213OM     OM1 8213   5.826   4.675   8.395  0.0000  0.0000  0.0000
 8214OM     OM1 8214   3.250   3.007   9.055  0.0000  0.0000  0.0000
 8215OM     OM1 8215   3.509   2.969   8.992  0.0000  0.0000  0.0000
 8216OM     OM1 8216   7.346   8.145   9.105  0.0000  0.0000  0.0000
 8217OM     OM1 8217   7.229   8.304   8.944  0.0000  0.0000  0.0000
 8218OM     OM1 8218   8.659   3.088   8.688  0.0000  0.0000  0.0000
 8219OM     OM1 8219   8.909   3.088   8.596  0.0000  0.0000  0.0000
 8220OM     OM1 8220   7.821   1.573   9.012  0.0000  0.0000  0.0000
 8221OM     OM1 8221   2.231   8.118   8.520  0.0000  0.0000  0.0000
 8222OM     OM1 8222   4.722   7.701   8.439  0.0000  0.0000  0.0000
 8223OM     OM1 8223   0.242   2.652   8.717  0.0000  0.0000  0.0000
 8224OM     OM1 8224   0.001   2.745   8.720  0.0000  0.0000  0.0000
 8225OM     OM1 8225   0.046   2.530   8.855  0.0000  0.0000  0.0000
 8226OM     OM1 8226   4.345   9.226   0.141  0.0000  0.0000  0.0000
 8227OM     OM1 8227   4.424   9.025   9.596  0.0000  0.0000  0.0000
 8228OM     OM1 8228   4.528   9.051   0.230  0.0000  0.0000  0.0000
 8229OM     OM1 8229   4.531   1.760   8.713  0.0000  0.0000  0.0000
 8230OM     OM1 8230   4.377   1.635   8.879  0.0000  0.0000  0.0000
 8231OM     OM1 8231   4.296   1.861   8.761  0.0000  0.0000  0.0000
 8232OM     OM1 8232   4.320   1.639   8.625  0.0000  0.0000  0.0000
 8233OM     OM1 8233   8.820   8.224   1.005  0.0000  0.0000  0.0000
 8234OM     OM1 8234   8.936   8.263   1.236  0.0000  0.0000  0.0000
 8235OM     OM1 8235   1.377   7.991   8.748  0.0000  0.0000  0.0000
 8236OM     OM1 8236   1.157   7.939   8.889  0.0000  0.0000  0.0000
 8237OM     OM1 8237   3.881   1.329   1.436  0.0000  0.0000  0.0000
 8238OM     OM1 8238   8.169   9.002   9.089  0.0000  0.0000  0.0000
 8239OM     OM1 8239   8.343   9.180   9.190  0.0000  0.0000  0.0000
 8240OM     OM1 8240   2.075   0.554   8.945  0.0000  0.0000  0.0000
 8241OM     OM1 8241   1.821   0.759   8.985  0.0000  0.0000  0.0000
 8242OM     OM1 8242   2.047   0.792   8.858  0.0000  0.0000  0.0000
 8243OM     OM1 8243   0.123   7.971   9.158  0.0000  0.0000  0.0000
 8244OM     OM1 8244   9.600   7.994   9.380  0.0000  0.0000  0.0000
 8245OM     OM1 8245   9.469   7.963   9.157  0.0000  0.0000  0.0000
 8246OM     OM1 8246   0.894   6.329   1.281  0.0000  0.0000  0.0000
 8247OM     OM1 8247   8.639   3.255   1.164  0.0000  0.0000  0.0000
 8248OM     OM1 8248   6.778   9.538   0.133  0.0000  0.0000  0.0000
 8249OM     OM1 8249   6.094   6.537   0.774  0.0000  0.0000  0.0000
 8250OM     OM1 8250   6.257   6.732   0.699  0.0000  0.0000  0.0000
 8251OM     OM1 8251   6.101   6.634   0.522  0.0000  0.0000  0.0000
 8252OM     OM1 8252   5.999   6.764   0.734  0.0000  0.0000  0.0000
 8253OM     OM1 8253   9.041   3.270   0.812  0.0000  0.0000  0.0000
 8254OM     OM1 8254   9.210   3.458   0.801  0.0000  0.0000  0.0000
 8255OM     OM1 8255   8.959   3.494   0.719  0.0000  0.0000  0.0000
 8256OM     OM1 8256   0.401   7.093   0.337  0.0000  0.0000  0.0000
 8257OM     OM1 8257   0.624   7.194   0.430  0.0000  0.0000  0.0000
 8258OM     OM1 8258   0.632   7.010   0.242  0.0000  0.0000  0.0000
 8259OM     OM1 8259   4.694   7.732   1.214  0.0000  0.0000  0.0000
 8260OM     OM1 8260   6.006   5.185   0.006  0.0000  0.0000  0.0000
 8261OM     OM1 8261   5.827   5.051   9.480  0.0000  0.0000  0.0000
 8262OM     OM1 8262   1.652   2.940   8.214  0.0000  0.0000  0.0000
 8263OM     OM1 8263   5.541   4.338   0.115  0.0000  0.0000  0.0000
 8264OM     OM1 8264   5.542   4.453   9.483  0.0000  0.0000  0.0000
 8265OM     OM1 8265   0.711   3.120   8.251  0.0000  0.0000  0.0000
 8266OM     OM1 8266   2.541   1.897   0.724  0.0000  0.0000  0.0000
 8267OM     OM1 8267   2.723   1.788   0.882  0.0000  0.0000  0.0000
 8268OM     OM1 8268   2.728   2.047   0.831  0.0000  0.0000  0.0000
 8269OM     OM1 8269   0.432   3.433   0.479  0.0000  0.0000  0.0000
 8270OM     OM1 8270   0.346   3.515   0.240  0.0000  0.0000  0.0000
 8271OM     OM1 8271   0.187   3.443   0.429  0.0000  0.0000  0.0000
 8272OM     OM1 8272   7.902   5.588   0.142  0.0000  0.0000  0.0000
 8273OM     OM1 8273   8.937   7.989   8.836  0.0000  0.0000  0.0000
 8274OM     OM1 8274   2.800   3.071   9.313  0.0000  0.0000  0.0000
 8275OM     OM1 8275   8.177   6.259   1.169  0.0000  0.0000  0.0000
 8276OM     OM1 8276   4.776   9.427   8.344  0.0000  0.0000  0.0000
 8277OM     OM1 8277   9.489   3.925   0.730  0.0000  0.0000  0.0000
 8278OM     OM1 8278   0.270   4.127   0.428  0.0000  0.0000  0.0000
 8279OM     OM1 8279   9.500   3.798   0.502  0.0000  0.0000  0.0000
 8280OM     OM1 8280   0.782   4.485   8.529  0.0000  0.0000  0.0000
 8281OM     OM1 8281   6.398   2.636   9.532  0.0000  0.0000  0.0000
 8282OM     OM1 8282   6.447   2.644   9.280  0.0000  0.0000  0.0000
 8283OM     OM1 8283   6.344   2.878   9.232  0.0000  0.0000  0.0000
 8284OM     OM1 8284   5.004   1.681   9.550  0.0000  0.0000  0.0000
 8285OM     OM1 8285   5.178   1.665   9.356  0.0000  0.0000  0.0000
 8286OM     OM1 8286   5.234   1.813   9.560  0.0000  0.0000  0.0000
 8287OM     OM1 8287   5.047   1.890   9.392  0.0000  0.0000  0.0000
 8288OM     OM1 8288   1.425   8.423   8.415  0.0000  0.0000  0.0000
 8289OM     OM1 8289   1.547   8.616   8.288  0.0000  0.0000  0.0000
 8290OM     OM1 8290   5.753   2.762   8.244  0.0000  0.0000  0.0000
 8291OM     OM1 8291   5.776   2.948   8.420  0.0000  0.0000  0.0000
 8292OM     OM1 8292   6.891   3.354   9.296  0.0000  0.0000  0.0000
 8293OM     OM1 8293   7.039   3.304   9.501  0.0000  0.0000  0.0000
 8294OM     OM1 8294   5.018   9.244   1.343  0.0000  0.0000  0.0000
 8295OM     OM1 8295   1.597   6.365   1.044  0.0000  0.0000  0.0000
 8296OM     OM1 8296   1.638   6.276   1.280  0.0000  0.0000  0.0000
 8297OM     OM1 8297   7.920   1.337   0.044  0.0000  0.0000  0.0000
 8298OM     OM1 8298   3.590   6.507   8.293  0.0000  0.0000  0.0000
 8299OM     OM1 8299   8.393   2.810   1.091  0.0000  0.0000  0.0000
 8300OM     OM1 8300   8.589   2.889   0.948  0.0000  0.0000  0.0000
 8301OM     OM1 8301   8.480   3.060   1.106  0.0000  0.0000  0.0000
 8302OM     OM1 8302   7.174   5.041   8.672  0.0000  0.0000  0.0000
 8303OM     OM1 8303   7.064   5.260   8.729  0.0000  0.0000  0.0000
 8304OM     OM1 8304   7.000   5.150   8.501  0.0000  0.0000  0.0000
 8305OM     OM1 8305   1.781   9.368   0.626  0.0000  0.0000  0.0000
 8306OM     OM1 8306   1.764   9.174   0.453  0.0000  0.0000  0.0000
 8307OM     OM1 8307   3.862   3.975   0.961  0.0000  0.0000  0.0000
 8308OM     OM1 8308   3.970   3.808   1.126  0.0000  0.0000  0.0000
 8309OM     OM1 8309   4.843   5.622   9.471  0.0000  0.0000  0.0000
 8310OM     OM1 8310   4.683   5.460   0.012  0.0000  0.0000  0.0000
 8311OM     OM1 8311   4.875   5.362   9.467  0.0000  0.0000  0.0000
 8312OM     OM1 8312   7.040   2.911   0.968  0.0000  0.0000  0.0000
 8313OM     OM1 8313   6.805   2.800   0.963  0.0000  0.0000  0.0000
 8314OM     OM1 8314   6.846   2.816   0.558  0.0000  0.0000  0.0000
 8315OM     OM1 8315   6.750   2.997   1.120  0.0000  0.0000  0.0000
 8316OM     OM1 8316   0.765   8.749   9.558  0.0000  0.0000  0.0000
 8317OM     OM1 8317   0.819   8.767   0.203  0.0000  0.0000  0.0000
 8318OM     OM1 8318   0.628   8.593   0.119  0.0000  0.0000  0.0000
 8319OM     OM1 8319   0.870   8.544   0.074  0.0000  0.0000  0.0000
 8320OM     OM1 8320   2.813   0.485   9.058  0.0000  0.0000  0.0000
 8321OM     OM1 8321   2.863   4.348   0.968  0.0000  0.0000  0.0000
 8322OM     OM1 8322   2.933   4.168   0.782  0.0000  0.0000  0.0000
 8323OM     OM1 8323   4.923   9.480   0.053  0.0000  0.0000  0.0000
 8324OM     OM1 8324   4.740   9.305   0.035  0.0000  0.0000  0.0000
 8325OM     OM1 8325   7.969   3.906   9.351  0.0000  0.0000  0.0000
 8326OM     OM1 8326   8.099   3.700   9.266  0.0000  0.0000  0.0000
 8327OM     OM1 8327   2.887   5.297   8.468  0.0000  0.0000  0.0000
 8328OM     OM1 8328   3.136   5.373   8.516  0.0000  0.0000  0.0000
 8329OM     OM1 8329   2.985   5.241   8.697  0.0000  0.0000  0.0000
 8330OM     OM1 8330   3.089   5.121   8.501  0.0000  0.0000  0.0000
 8331OM     OM1 8331   2.632   7.639   1.247  0.0000  0.0000  0.0000
 8332OM     OM1 8332   2.668   7.878   1.132  0.0000  0.0000  0.0000
 8333OM     OM1 8333   8.535   1.459   8.912  0.0000  0.0000  0.0000
 8334OM     OM1 8334   8.736   1.620   8.898  0.0000  0.0000  0.0000
 8335OM     OM1 8335   8.580   1.582   8.689  0.0000  0.0000  0.0000
 8336OM     OM1 8336   9.055   3.645   0.530  0.0000  0.0000  0.0000
 8337OM     OM1 8337   9.193   3.841   0.433  0.0000  0.0000  0.0000
 8338OM     OM1 8338   9.127   3.637   0.282  0.0000  0.0000  0.0000
 8339OM     OM1 8339   9.317   3.621   0.458  0.0000  0.0000  0.0000
 8340OM     OM1 8340   7.066   6.676   0.873  0.0000  0.0000  0.0000
 8341OM     OM1 8341   7.149   6.918   0.890  0.0000  0.0000  0.0000
 8342OM     OM1 8342   9.096   9.264   9.494  0.0000  0.0000  0.0000
 8343OM     OM1 8343   5.447   9.344   0.228  0.0000  0.0000  0.0000
 8344OM     OM1 8344   5.576   9.117   0.281  0.0000  0.0000  0.0000
 8345OM     OM1 8345   5.554   9.208   0.038  0.0000  0.0000  0.0000
 8346OM     OM1 8346   5.835   5.470   0.438  0.0000  0.0000  0.0000
 8347OM     OM1 8347   5.804   5.701   0.533  0.0000  0.0000  0.0000
 8348OM     OM1 8348   1.790   8.827   8.892  0.0000  0.0000  0.0000
 8349OM     OM1 8349   1.705   8.769   8.654  0.0000  0.0000  0.0000
 8350OM     OM1 8350   1.811   8.580   8.816  0.0000  0.0000  0.0000
 8351OM     OM1 8351   6.835   1.507   9.218  0.0000  0.0000  0.0000
 8352OM     OM1 8352   7.085   1.471   9.206  0.0000  0.0000  0.0000
 8353OM     OM1 8353   6.963   1.418   9.426  0.0000  0.0000  0.0000
 8354OM     OM1 8354   5.863   2.811   1.270  0.0000  0.0000  0.0000
 8355OM     OM1 8355   5.285   2.374   0.856  0.0000  0.0000  0.0000
 8356OM     OM1 8356   5.289   2.117   0.876  0.0000  0.0000  0.0000
 8357OM     OM1 8357   4.894   0.531   9.023  0.0000  0.0000  0.0000
 8358OM     OM1 8358   5.092   0.373   9.014  0.0000  0.0000  0.0000
 8359OM     OM1 8359   2.554   6.607   1.085  0.0000  0.0000  0.0000
 8360OM     OM1 8360   2.509   6.378   0.970  0.0000  0.0000  0.0000
 8361OM     OM1 8361   2.408   6.427   1.197  0.0000  0.0000  0.0000
 8362OM     OM1 8362   6.601   2.571   8.491  0.0000  0.0000  0.0000
 8363OM     OM1 8363   7.961   3.907   1.283  0.0000  0.0000  0.0000
 8364OM     OM1 8364   7.834   3.977   1.057  0.0000  0.0000  0.0000
 8365OM     OM1 8365   8.008   4.143   1.170  0.0000  0.0000  0.0000
 8366OM     OM1 8366   8.500   8.662   0.433  0.0000  0.0000  0.0000
 8367OM     OM1 8367   8.599   8.798   0.237  0.0000  0.0000  0.0000
 8368OM     OM1 8368   7.543   7.976   1.344  0.0000  0.0000  0.0000
 8369OM     OM1 8369   7.305   8.048   1.283  0.0000  0.0000  0.0000
 8370OM     OM1 8370   7.497   8.112   1.120  0.0000  0.0000  0.0000
 8371OM     OM1 8371   6.250   5.948   8.374  0.0000  0.0000  0.0000
 8372OM     OM1 8372   7.063   9.238   8.396  0.0000  0.0000  0.0000
 8373OM     OM1 8373   3.828   1.133   1.270  0.0000  0.0000  0.0000
 8374OM     OM1 8374   6.491   7.122   0.954  0.0000  0.0000  0.0000
 8375OM     OM1 8375   6.326   7.238   1.116  0.0000  0.0000  0.0000
 8376OM     OM1 8376   9.460   0.078   1.003  0.0000  0.0000  0.0000
 8377OM     OM1 8377   9.125   0.384   0.947  0.0000  0.0000  0.0000
 8378OM     OM1 8378   8.411   2.973   9.200  0.0000  0.0000  0.0000
 8379OM     OM1 8379   3.317   2.695   0.206  0.0000  0.0000  0.0000
 8380OM     OM1 8380   3.279   2.580   9.585  0.0000  0.0000  0.0000
 8381OM     OM1 8381   5.915   5.411   8.474  0.0000  0.0000  0.0000
 8382OM     OM1 8382   1.266   7.746   9.398  0.0000  0.0000  0.0000
 8383OM     OM1 8383   1.270   7.529   9.533  0.0000  0.0000  0.0000
 8384OM     OM1 8384   6.352   1.324   8.692  0.0000  0.0000  0.0000
 8385OM     OM1 8385   7.236   1.259   0.994  0.0000  0.0000  0.0000
 8386OM     OM1 8386   5.745   8.080   0.268  0.0000  0.0000  0.0000
 8387OM     OM1 8387   5.619   8.044   0.054  0.0000  0.0000  0.0000
 8388OM     OM1 8388   5.530   7.926   0.273  0.0000  0.0000  0.0000
 8389OM     OM1 8389   9.543   9.584   8.462  0.0000  0.0000  0.0000
 8390OM     OM1 8390   7.925   9.241   8.782  0.0000  0.0000  0.0000
 8391OM     OM1 8391   8.114   9.154   8.614  0.0000  0.0000  0.0000
 8392OM     OM1 8392   6.173   7.557   8.921  0.0000  0.0000  0.0000
 8393OM     OM1 8393   6.044   7.771   8.842  0.0000  0.0000  0.0000
 8394OM     OM1 8394   8.293   2.557   9.528  0.0000  0.0000  0.0000
 8395OM     OM1 8395   8.453   2.478   0.116  0.0000  0.0000  0.0000
 8396OM     OM1 8396   8.462   2.349   9.489  0.0000  0.0000  0.0000
 8397OM     OM1 8397   6.734   2.467   0.800  0.0000  0.0000  0.0000
 8398OM     OM1 8398   6.764   2.427   1.068  0.0000  0.0000  0.0000
 8399OM     OM1 8399   7.312   6.452   8.938  0.0000  0.0000  0.0000
 8400OM     OM1 8400   7.189   6.668   9.010  0.0000  0.0000  0.0000
 8401OM     OM1 8401   6.684   3.550   8.758  0.0000  0.0000  0.0000
 8402OM     OM1 8402   6.496   3.477   8.600  0.0000  0.0000  0.0000
 8403OM     OM1 8403   0.875   0.460   0.087  0.0000  0.0000  0.0000
 8404OM     OM1 8404   8.340   9.289   1.228  0.0000  0.0000  0.0000
 8405OM     OM1 8405   8.256   9.437   1.423  0.0000  0.0000  0.0000
 8406OM     OM1 8406   4.458   8.070   1.132  0.0000  0.0000  0.0000
 8407OM     OM1 8407   4.284   7.913   1.224  0.0000  0.0000  0.0000
 8408OM     OM1 8408   7.543   6.648   9.523  0.0000  0.0000  0.0000
 8409OM     OM1 8409   7.735   6.818   9.595  0.0000  0.0000  0.0000
 8410OM     OM1 8410   7.771   6.585   9.449  0.0000  0.0000  0.0000
 8411OM     OM1 8411   4.499   3.486   0.343  0.0000  0.0000  0.0000
 8412OM     OM1 8412   0.022   7.897   1.334  0.0000  0.0000  0.0000
 8413OM     OM1 8413   9.431   8.375   1.273  0.0000  0.0000  0.0000
 8414OM     OM1 8414   9.425   8.245   1.051  0.0000  0.0000  0.0000
 8415OM     OM1 8415   1.988   5.523   8.577  0.0000  0.0000  0.0000
 8416OM     OM1 8416   2.214   5.612   8.663  0.0000  0.0000  0.0000
 8417OM     OM1 8417   2.139   5.357   8.701  0.0000  0.0000  0.0000
 8418OM     OM1 8418   1.300   7.037   8.583  0.0000  0.0000  0.0000
 8419OM     OM1 8419   1.139   6.904   8.747  0.0000  0.0000  0.0000
 8420OM     OM1 8420   1.054   7.116   8.611  0.0000  0.0000  0.0000
 8421OM     OM1 8421   4.285   9.370   0.455  0.0000  0.0000  0.0000
 8422OM     OM1 8422   3.888   0.104   0.465  0.0000  0.0000  0.0000
 8423OM     OM1 8423   8.734   9.015   0.243  0.0000  0.0000  0.0000
 8424OM     OM1 8424   8.760   8.844   0.042  0.0000  0.0000  0.0000
 8425OM     OM1 8425   8.535   8.970   0.069  0.0000  0.0000  0.0000
 8426OM     OM1 8426   1.396   3.943   1.248  0.0000  0.0000  0.0000
 8427OM     OM1 8427   1.374   4.155   1.099  0.0000  0.0000  0.0000
 8428OM     OM1 8428   1.296   3.929   0.997  0.0000  0.0000  0.0000
 8429OM     OM1 8429   5.302   9.051   8.448  0.0000  0.0000  0.0000
 8430OM     OM1 8430   5.202   9.378   8.584  0.0000  0.0000  0.0000
 8431OM     OM1 8431   5.411   9.281   8.451  0.0000  0.0000  0.0000
 8432OM     OM1 8432   1.886   7.201   0.774  0.0000  0.0000  0.0000
 8433OM     OM1 8433   1.938   7.421   0.630  0.0000  0.0000  0.0000
 8434OM     OM1 8434   2.817   3.210   0.350  0.0000  0.0000  0.0000
 8435OM     OM1 8435   2.884   2.973   0.248  0.0000  0.0000  0.0000
 8436OM     OM1 8436   3.006   3.118   0.480  0.0000  0.0000  0.0000
 8437OM     OM1 8437   7.291   8.045   0.834  0.0000  0.0000  0.0000
 8438OM     OM1 8438   7.168   8.266   1.290  0.0000  0.0000  0.0000
 8439OM     OM1 8439   7.220   8.145   1.066  0.0000  0.0000  0.0000
 8440OM     OM1 8440   1.242   9.002   0.752  0.0000  0.0000  0.0000
 8441OM     OM1 8441   1.439   8.839   0.750  0.0000  0.0000  0.0000
 8442OM     OM1 8442   6.170   8.171   9.312  0.0000  0.0000  0.0000
 8443OM     OM1 8443   1.210   3.965   0.217  0.0000  0.0000  0.0000
 8444OM     OM1 8444   1.938   8.973   1.296  0.0000  0.0000  0.0000
 8445OM     OM1 8445   5.789   7.656   0.364  0.0000  0.0000  0.0000
 8446OM     OM1 8446   5.946   7.499   0.229  0.0000  0.0000  0.0000
 8447OM     OM1 8447   6.041   7.722   0.331  0.0000  0.0000  0.0000
 8448OM     OM1 8448   8.546   9.044   0.687  0.0000  0.0000  0.0000
 8449OM     OM1 8449   8.359   9.244   0.743  0.0000  0.0000  0.0000
 8450OM     OM1 8450   8.366   9.515   0.777  0.0000  0.0000  0.0000
 8451OM     OM1 8451   5.719   2.227   9.019  0.0000  0.0000  0.0000
 8452OM     OM1 8452   5.964   2.305   9.059  0.0000  0.0000  0.0000
 8453OM     OM1 8453   5.785   2.394   9.216  0.0000  0.0000  0.0000
 8454OM     OM1 8454   5.773   2.395   8.833  0.0000  0.0000  0.0000
 8455OM     OM1 8455   3.445   6.928   9.062  0.0000  0.0000  0.0000
 8456OM     OM1 8456   5.189   6.782   8.830  0.0000  0.0000  0.0000
 8457OM     OM1 8457   0.687   0.665   0.411  0.0000  0.0000  0.0000
 8458OM     OM1 8458   0.562   0.656   0.632  0.0000  0.0000  0.0000
 8459OM     OM1 8459   3.269   0.345   1.259  0.0000  0.0000  0.0000
 8460OM     OM1 8460   2.578   9.520   0.793  0.0000  0.0000  0.0000
 8461OM     OM1 8461   2.577   9.268   0.690  0.0000  0.0000  0.0000
 8462OM     OM1 8462   3.928   0.962   9.350  0.0000  0.0000  0.0000
 8463OM     OM1 8463   3.871   1.199   9.428  0.0000  0.0000  0.0000
 8464OM     OM1 8464   4.104   1.069   9.488  0.0000  0.0000  0.0000
 8465OM     OM1 8465   9.315   4.540   9.286  0.0000  0.0000  0.0000
 8466OM     OM1 8466   9.351   4.281   9.276  0.0000  0.0000  0.0000
 8467OM     OM1 8467   7.697   8.107   0.649  0.0000  0.0000  0.0000
 8468OM     OM1 8468   1.917   7.676   0.679  0.0000  0.0000  0.0000
 8469OM     OM1 8469   1.788   7.568   0.872  0.0000  0.0000  0.0000
 8470OM     OM1 8470   1.782   7.820   0.875  0.0000  0.0000  0.0000
 8471OM     OM1 8471   2.013   7.703   0.918  0.0000  0.0000  0.0000
 8472OM     OM1 8472   4.719   4.584   8.778  0.0000  0.0000  0.0000
 8473OM     OM1 8473   2.483   9.091   8.446  0.0000  0.0000  0.0000
 8474OM     OM1 8474   2.608   8.896   8.526  0.0000  0.0000  0.0000
 8475OM     OM1 8475   3.636   3.300   8.471  0.0000  0.0000  0.0000
 8476OM     OM1 8476   6.715   1.663   0.209  0.0000  0.0000  0.0000
 8477OM     OM1 8477   6.704   1.669   0.464  0.0000  0.0000  0.0000
 8478OM     OM1 8478   0.957   2.126   9.227  0.0000  0.0000  0.0000
 8479OM     OM1 8479   1.012   1.946   9.040  0.0000  0.0000  0.0000
 8480OM     OM1 8480   0.766   2.004   9.088  0.0000  0.0000  0.0000
 8481OM     OM1 8481   7.515   0.139   0.931  0.0000  0.0000  0.0000
 8482OM     OM1 8482   7.468   0.350   1.081  0.0000  0.0000  0.0000
 8483OM     OM1 8483   5.448   9.581   1.087  0.0000  0.0000  0.0000
 8484OM     OM1 8484   1.252   6.254   9.162  0.0000  0.0000  0.0000
 8485OM     OM1 8485   1.472   6.391   9.188  0.0000  0.0000  0.0000
 8486OM     OM1 8486   6.499   7.888   0.356  0.0000  0.0000  0.0000
 8487OM     OM1 8487   6.251   7.867   0.286  0.0000  0.0000  0.0000
 8488OM     OM1 8488   6.436   7.731   0.161  0.0000  0.0000  0.0000
 8489OM     OM1 8489   3.886   8.498   1.055  0.0000  0.0000  0.0000
 8490OM     OM1 8490   4.143   8.523   0.984  0.0000  0.0000  0.0000
 8491OM     OM1 8491   4.021   8.311   0.920  0.0000  0.0000  0.0000
 8492OM     OM1 8492   3.726   7.545   8.511  0.0000  0.0000  0.0000
 8493OM     OM1 8493   7.004   0.660   8.351  0.0000  0.0000  0.0000
 8494OM     OM1 8494   7.268   0.624   8.304  0.0000  0.0000  0.0000
 8495OM     OM1 8495   0.366   3.734   0.088  0.0000  0.0000  0.0000
 8496OM     OM1 8496   0.613   3.682   0.103  0.0000  0.0000  0.0000
 8497OM     OM1 8497   7.345   7.671   1.237  0.0000  0.0000  0.0000
 8498OM     OM1 8498   7.244   7.186   1.173  0.0000  0.0000  0.0000
 8499OM     OM1 8499   7.142   7.660   1.083  0.0000  0.0000  0.0000
 8500OM     OM1 8500   7.292   7.451   1.107  0.0000  0.0000  0.0000
 8501OM     OM1 8501   2.518   5.174   1.269  0.0000  0.0000  0.0000
 8502OM     OM1 8502   4.211   7.288   9.358  0.0000  0.0000  0.0000
 8503OM     OM1 8503   4.369   7.492   9.338  0.0000  0.0000  0.0000
 8504OM     OM1 8504   4.462   7.252   9.361  0.0000  0.0000  0.0000
 8505OM     OM1 8505   3.317   0.880   8.863  0.0000  0.0000  0.0000
 8506OM     OM1 8506   3.163   1.086   8.868  0.0000  0.0000  0.0000
 8507OM     OM1 8507   0.644   7.229   0.691  0.0000  0.0000  0.0000
 8508OM     OM1 8508   8.655   6.005   0.633  0.0000  0.0000  0.0000
 8509OM     OM1 8509   8.706   5.965   0.890  0.0000  0.0000  0.0000
 8510OM     OM1 8510   8.897   5.976   0.715  0.0000  0.0000  0.0000
 8511OM     OM1 8511   8.961   7.016   1.220  0.0000  0.0000  0.0000
 8512OM     OM1 8512   9.183   7.124   1.144  0.0000  0.0000  0.0000
 8513OM     OM1 8513   2.737   8.424   9.334  0.0000  0.0000  0.0000
 8514OM     OM1 8514   1.236   8.374   0.325  0.0000  0.0000  0.0000
 8515OM     OM1 8515   1.303   8.622   0.288  0.0000  0.0000  0.0000
 8516OM     OM1 8516   1.118   8.511   0.137  0.0000  0.0000  0.0000
 8517OM     OM1 8517   9.469   1.622   9.369  0.0000  0.0000  0.0000
 8518OM     OM1 8518   1.897   2.495   1.161  0.0000  0.0000  0.0000
 8519OM     OM1 8519   5.528   7.669   0.345  0.0000  0.0000  0.0000
 8520OM     OM1 8520   8.267   5.318   8.125  0.0000  0.0000  0.0000
 8521OM     OM1 8521   0.462   2.980   8.877  0.0000  0.0000  0.0000
 8522OM     OM1 8522   0.256   3.116   8.979  0.0000  0.0000  0.0000
 8523OM     OM1 8523   6.183   1.513   8.657  0.0000  0.0000  0.0000
 8524OM     OM1 8524   6.082   1.743   8.740  0.0000  0.0000  0.0000
 8525OM     OM1 8525   6.018   0.618   0.434  0.0000  0.0000  0.0000
 8526OM     OM1 8526   6.259   0.510   0.479  0.0000  0.0000  0.0000
 8527OM     OM1 8527   6.125   0.606   0.679  0.0000  0.0000  0.0000
 8528OM     OM1 8528   6.847   1.501   0.044  0.0000  0.0000  0.0000
 8529OM     OM1 8529   6.942   1.262   0.037  0.0000  0.0000  0.0000
 8530OM     OM1 8530   8.984   5.716   8.709  0.0000  0.0000  0.0000
 8531OM     OM1 8531   9.230   5.645   8.736  0.0000  0.0000  0.0000
 8532OM     OM1 8532   2.984   2.284   9.404  0.0000  0.0000  0.0000
 8533OM     OM1 8533   2.810   2.231   9.596  0.0000  0.0000  0.0000
 8534OM     OM1 8534   3.017   2.076   9.572  0.0000  0.0000  0.0000
 8535OM     OM1 8535   3.732   8.749   8.748  0.0000  0.0000  0.0000
 8536OM     OM1 8536   3.555   8.554   8.740  0.0000  0.0000  0.0000
 8537OM     OM1 8537   3.616   8.660   8.966  0.0000  0.0000  0.0000
 8538OM     OM1 8538   3.025   1.038   9.092  0.0000  0.0000  0.0000
 8539OM     OM1 8539   2.906   1.018   8.863  0.0000  0.0000  0.0000
 8540OM     OM1 8540   0.634   7.352   8.968  0.0000  0.0000  0.0000
 8541OM     OM1 8541   0.503   7.150   9.082  0.0000  0.0000  0.0000
 8542OM     OM1 8542   0.681   7.101   8.905  0.0000  0.0000  0.0000
 8543OM     OM1 8543   6.162   6.822   8.843  0.0000  0.0000  0.0000
 8544OM     OM1 8544   6.247   7.049   8.940  0.0000  0.0000  0.0000
 8545OM     OM1 8545   6.104   7.040   8.721  0.0000  0.0000  0.0000
 8546OM     OM1 8546   5.270   9.545   0.203  0.0000  0.0000  0.0000
 8547OM     OM1 8547   8.488   9.424   8.841  0.0000  0.0000  0.0000
 8548OM     OM1 8548   8.359   9.407   9.061  0.0000  0.0000  0.0000
 8549OM     OM1 8549   8.500   0.021   9.012  0.0000  0.0000  0.0000
 8550OM     OM1 8550   0.954   4.561   1.282  0.0000  0.0000  0.0000
 8551OM     OM1 8551   2.651   2.416   9.217  0.0000  0.0000  0.0000
 8552OM     OM1 8552   2.436   2.354   9.076  0.0000  0.0000  0.0000
 8553OM     OM1 8553   2.592   2.157   9.151  0.0000  0.0000  0.0000
 8554OM     OM1 8554   2.363   3.616   1.056  0.0000  0.0000  0.0000
 8555OM     OM1 8555   2.194   3.440   0.974  0.0000  0.0000  0.0000
 8556OM     OM1 8556   3.741   7.947   9.054  0.0000  0.0000  0.0000
 8557OM     OM1 8557   3.873   8.164   9.093  0.0000  0.0000  0.0000
 8558OM     OM1 8558   5.363   2.621   0.817  0.0000  0.0000  0.0000
 8559OM     OM1 8559   5.574   2.772   0.870  0.0000  0.0000  0.0000
 8560OM     OM1 8560   9.288   3.711   0.088  0.0000  0.0000  0.0000
 8561OM     OM1 8561   9.051   3.810   0.109  0.0000  0.0000  0.0000
 8562OM     OM1 8562   0.180   1.586   1.162  0.0000  0.0000  0.0000
 8563OM     OM1 8563   9.205   8.199   0.908  0.0000  0.0000  0.0000
 8564OM     OM1 8564   6.544   2.375   1.164  0.0000  0.0000  0.0000
 8565OM     OM1 8565   6.460   2.583   1.018  0.0000  0.0000  0.0000
 8566OM     OM1 8566   3.308   4.736   0.490  0.0000  0.0000  0.0000
 8567OM     OM1 8567   5.593   5.172   9.475  0.0000  0.0000  0.0000
 8568OM     OM1 8568   7.145   3.413   8.550  0.0000  0.0000  0.0000
 8569OM     OM1 8569   7.170   3.244   8.360  0.0000  0.0000  0.0000
 8570OM     OM1 8570   3.162   6.376   1.034  0.0000  0.0000  0.0000
 8571OM     OM1 8571   3.042   6.153   1.069  0.0000  0.0000  0.0000
 8572OM     OM1 8572   3.298   6.172   0.989  0.0000  0.0000  0.0000
 8573OM     OM1 8573   6.838   8.887   1.195  0.0000  0.0000  0.0000
 8574OM     OM1 8574   6.651   9.000   1.051  0.0000  0.0000  0.0000
 8575OM     OM1 8575   0.597   8.330   0.073  0.0000  0.0000  0.0000
 8576OM     OM1 8576   4.956   7.469   0.160  0.0000  0.0000  0.0000
 8577OM     OM1 8577   4.838   7.344   9.556  0.0000  0.0000  0.0000
 8578OM     OM1 8578   4.844   7.602   9.575  0.0000  0.0000  0.0000
 8579OM     OM1 8579   4.698   7.475   0.142  0.0000  0.0000  0.0000
 8580OM     OM1 8580   4.014   5.501   9.049  0.0000  0.0000  0.0000
 8581OM     OM1 8581   3.995   5.731   9.154  0.0000  0.0000  0.0000
 8582OM     OM1 8582   8.200   5.797   0.951  0.0000  0.0000  0.0000
 8583OM     OM1 8583   6.608   9.008   0.786  0.0000  0.0000  0.0000
 8584OM     OM1 8584   6.493   8.847   0.621  0.0000  0.0000  0.0000
 8585OM     OM1 8585   6.761   8.893   0.614  0.0000  0.0000  0.0000
 8586OM     OM1 8586   4.340   0.921   9.087  0.0000  0.0000  0.0000
 8587OM     OM1 8587   4.123   0.849   9.199  0.0000  0.0000  0.0000
 8588OM     OM1 8588   6.071   5.233   1.143  0.0000  0.0000  0.0000
 8589OM     OM1 8589   6.031   5.052   0.966  0.0000  0.0000  0.0000
 8590OM     OM1 8590   4.680   3.845   8.794  0.0000  0.0000  0.0000
 8591OM     OM1 8591   4.500   3.660   8.796  0.0000  0.0000  0.0000
 8592OM     OM1 8592   4.733   3.608   8.693  0.0000  0.0000  0.0000
 8593OM     OM1 8593   9.350   1.408   0.707  0.0000  0.0000  0.0000
 8594OM     OM1 8594   0.016   1.719   0.456  0.0000  0.0000  0.0000
 8595OM     OM1 8595   9.498   1.725   0.673  0.0000  0.0000  0.0000
 8596OM     OM1 8596   8.406   2.444   8.653  0.0000  0.0000  0.0000
 8597OM     OM1 8597   8.641   2.450   8.774  0.0000  0.0000  0.0000
 8598OM     OM1 8598   8.607   2.290   8.579  0.0000  0.0000  0.0000
 8599OM     OM1 8599   0.648   6.552   0.929  0.0000  0.0000  0.0000
 8600OM     OM1 8600   0.540   6.782   0.859  0.0000  0.0000  0.0000
 8601OM     OM1 8601   0.564   6.719   1.113  0.0000  0.0000  0.0000
 8602OM     OM1 8602   0.156   8.152   9.518  0.0000  0.0000  0.0000
 8603OM     OM1 8603   9.542   8.084   0.023  0.0000  0.0000  0.0000
 8604OM     OM1 8604   2.468   4.665   9.222  0.0000  0.0000  0.0000
 8605OM     OM1 8605   8.816   2.521   0.393  0.0000  0.0000  0.0000
 8606OM     OM1 8606   8.948   2.492   0.617  0.0000  0.0000  0.0000
 8607OM     OM1 8607   8.781   2.306   0.559  0.0000  0.0000  0.0000
 8608OM     OM1 8608   8.700   2.553   0.612  0.0000  0.0000  0.0000
 8609OM     OM1 8609   1.844   0.932   8.780  0.0000  0.0000  0.0000
 8610OM     OM1 8610   8.603   0.168   0.210  0.0000  0.0000  0.0000
 8611OM     OM1 8611   8.381   0.044   0.116  0.0000  0.0000  0.0000
 8612OM     OM1 8612   8.209   0.043   0.354  0.0000  0.0000  0.0000
 8613OM     OM1 8613   7.893   9.454   0.030  0.0000  0.0000  0.0000
 8614OM     OM1 8614   8.147   9.500   0.069  0.0000  0.0000  0.0000
 8615OM     OM1 8615   1.460   4.886   9.572  0.0000  0.0000  0.0000
 8616OM     OM1 8616   1.544   5.103   0.082  0.0000  0.0000  0.0000
 8617OM     OM1 8617   1.780   5.048   1.358  0.0000  0.0000  0.0000
 8618OM     OM1 8618   1.943   5.228   1.274  0.0000  0.0000  0.0000
 8619OM     OM1 8619   1.965   3.482   1.109  0.0000  0.0000  0.0000
 8620OM     OM1 8620   2.016   3.255   0.984  0.0000  0.0000  0.0000
 8621OM     OM1 8621   9.273   3.262   8.327  0.0000  0.0000  0.0000
 8622OM     OM1 8622   5.547   4.222   8.905  0.0000  0.0000  0.0000
 8623OM     OM1 8623   5.861   4.273   9.068  0.0000  0.0000  0.0000
 8624OM     OM1 8624   5.762   4.464   9.224  0.0000  0.0000  0.0000
 8625OM     OM1 8625   0.539   4.959   9.499  0.0000  0.0000  0.0000
 8626OM     OM1 8626   6.491   1.637   9.445  0.0000  0.0000  0.0000
 8627OM     OM1 8627   6.578   1.886   9.433  0.0000  0.0000  0.0000
 8628OM     OM1 8628   6.714   1.698   9.558  0.0000  0.0000  0.0000
 8629OM     OM1 8629   6.701   1.708   9.298  0.0000  0.0000  0.0000
 8630OM     OM1 8630   7.196   9.276   1.071  0.0000  0.0000  0.0000
 8631OM     OM1 8631   0.162   6.245   8.982  0.0000  0.0000  0.0000
 8632OM     OM1 8632   0.313   6.199   9.185  0.0000  0.0000  0.0000
 8633OM     OM1 8633   0.286   6.024   8.992  0.0000  0.0000  0.0000
 8634OM     OM1 8634   3.594   1.888   1.348  0.0000  0.0000  0.0000
 8635OM     OM1 8635   3.443   2.085   1.402  0.0000  0.0000  0.0000
 8636OM     OM1 8636   3.561   2.087   1.170  0.0000  0.0000  0.0000
 8637OM     OM1 8637   8.559   7.295   8.723  0.0000  0.0000  0.0000
 8638OM     OM1 8638   8.514   7.200   8.956  0.0000  0.0000  0.0000
 8639OM     OM1 8639   8.314   7.256   8.795  0.0000  0.0000  0.0000
 8640OM     OM1 8640   2.283   8.156   9.443  0.0000  0.0000  0.0000
 8641OM     OM1 8641   5.640   5.628   9.118  0.0000  0.0000  0.0000
 8642OM     OM1 8642   5.719   5.530   9.343  0.0000  0.0000  0.0000
 8643OM     OM1 8643   4.282   1.641   9.349  0.0000  0.0000  0.0000
 8644OM     OM1 8644   4.322   1.475   9.551  0.0000  0.0000  0.0000
 8645OM     OM1 8645   2.310   1.305   1.003  0.0000  0.0000  0.0000
 8646OM     OM1 8646   2.492   1.201   0.860  0.0000  0.0000  0.0000
 8647OM     OM1 8647   0.705   1.365   8.381  0.0000  0.0000  0.0000
 8648OM     OM1 8648   0.734   1.123   8.332  0.0000  0.0000  0.0000
 8649OM     OM1 8649   0.050   5.897   0.334  0.0000  0.0000  0.0000
 8650OM     OM1 8650   0.035   5.888   0.074  0.0000  0.0000  0.0000
 8651OM     OM1 8651   7.257   2.592   0.372  0.0000  0.0000  0.0000
 8652OM     OM1 8652   5.891   8.290   0.226  0.0000  0.0000  0.0000
 8653OM     OM1 8653   1.597   8.092   0.659  0.0000  0.0000  0.0000
 8654OM     OM1 8654   1.668   8.264   0.485  0.0000  0.0000  0.0000
 8655OM     OM1 8655   4.359   3.857   0.627  0.0000  0.0000  0.0000
 8656OM     OM1 8656   4.424   3.708   0.835  0.0000  0.0000  0.0000
 8657OM     OM1 8657   7.800   2.599   8.389  0.0000  0.0000  0.0000
 8658OM     OM1 8658   7.856   2.852   8.316  0.0000  0.0000  0.0000
 8659OM     OM1 8659   4.375   2.103   8.711  0.0000  0.0000  0.0000
 8660OM     OM1 8660   1.027   3.135   9.083  0.0000  0.0000  0.0000
 8661OM     OM1 8661   1.044   3.221   9.337  0.0000  0.0000  0.0000
 8662OM     OM1 8662   1.773   5.395   8.668  0.0000  0.0000  0.0000
 8663OM     OM1 8663   1.542   5.384   8.783  0.0000  0.0000  0.0000
 8664OM     OM1 8664   1.605   5.181   8.643  0.0000  0.0000  0.0000
 8665OM     OM1 8665   1.551   5.398   8.521  0.0000  0.0000  0.0000
 8666OM     OM1 8666   5.543   3.281   9.024  0.0000  0.0000  0.0000
 8667OM     OM1 8667   5.295   3.188   9.128  0.0000  0.0000  0.0000
 8668OM     OM1 8668   5.349   3.194   8.666  0.0000  0.0000  0.0000
 8669OM     OM1 8669   2.921   0.217   9.431  0.0000  0.0000  0.0000
 8670OM     OM1 8670   9.424   4.643   9.001  0.0000  0.0000  0.0000
 8671OM     OM1 8671   9.481   4.734   8.768  0.0000  0.0000  0.0000
 8672OM     OM1 8672   5.019   2.926   8.469  0.0000  0.0000  0.0000
 8673OM     OM1 8673   1.634   2.277   8.747  0.0000  0.0000  0.0000
 8674OM     OM1 8674   1.830   2.409   8.846  0.0000  0.0000  0.0000
 8675OM     OM1 8675   3.241   3.688   0.741  0.0000  0.0000  0.0000
 8676OM     OM1 8676   3.050   3.663   0.571  0.0000  0.0000  0.0000
 8677OM     OM1 8677   2.965   3.714   0.801  0.0000  0.0000  0.0000
 8678OM     OM1 8678   0.250   1.697   0.336  0.0000  0.0000  0.0000
 8679OM     OM1 8679   5.298   6.833   0.584  0.0000  0.0000  0.0000
 8680OM     OM1 8680   5.087   6.966   0.475  0.0000  0.0000  0.0000
 8681OM     OM1 8681   1.292   2.806   9.404  0.0000  0.0000  0.0000
 8682OM     OM1 8682   1.263   2.605   9.556  0.0000  0.0000  0.0000
 8683OM     OM1 8683   1.236   2.578   9.305  0.0000  0.0000  0.0000
 8684OM     OM1 8684   1.046   2.705   9.418  0.0000  0.0000  0.0000
 8685OM     OM1 8685   0.151   2.150   0.125  0.0000  0.0000  0.0000
 8686OM     OM1 8686   1.618   7.900   8.744  0.0000  0.0000  0.0000
 8687OM     OM1 8687   1.787   7.974   8.931  0.0000  0.0000  0.0000
 8688OM     OM1 8688   3.211   6.670   0.126  0.0000  0.0000  0.0000
 8689OM     OM1 8689   3.255   6.427   0.036  0.0000  0.0000  0.0000
 8690OM     OM1 8690   5.654   8.032   9.403  0.0000  0.0000  0.0000
 8691OM     OM1 8691   9.059   2.675   0.480  0.0000  0.0000  0.0000
 8692OM     OM1 8692   9.016   2.913   0.418  0.0000  0.0000  0.0000
 8693OM     OM1 8693   8.920   2.716   0.268  0.0000  0.0000  0.0000
 8694OM     OM1 8694   9.167   2.777   0.253  0.0000  0.0000  0.0000
 8695OM     OM1 8695   5.043   0.639   0.385  0.0000  0.0000  0.0000
 8696OM     OM1 8696   8.132   7.887   8.813  0.0000  0.0000  0.0000
 8697OM     OM1 8697   0.622   5.648   8.775  0.0000  0.0000  0.0000
 8698OM     OM1 8698   8.612   1.316   0.406  0.0000  0.0000  0.0000
 8699OM     OM1 8699   8.772   1.363   0.214  0.0000  0.0000  0.0000
 8700OM     OM1 8700   7.302   9.078   1.202  0.0000  0.0000  0.0000
 8701OM     OM1 8701   7.107   8.911   1.218  0.0000  0.0000  0.0000
 8702OM     OM1 8702   7.530   7.427   0.530  0.0000  0.0000  0.0000
 8703OM     OM1 8703   7.342   7.610   0.483  0.0000  0.0000  0.0000
 8704OM     OM1 8704   5.966   1.109   0.312  0.0000  0.0000  0.0000
 8705OM     OM1 8705   5.931   1.351   0.226  0.0000  0.0000  0.0000
 8706OM     OM1 8706   4.714   7.269   9.330  0.0000  0.0000  0.0000
 8707OM     OM1 8707   7.935   6.455   8.484  0.0000  0.0000  0.0000
 8708OM     OM1 8708   7.919   6.679   8.602  0.0000  0.0000  0.0000
 8709OM     OM1 8709   7.866   6.673   8.343  0.0000  0.0000  0.0000
 8710OM     OM1 8710   9.516   0.867   8.970  0.0000  0.0000  0.0000
 8711OM     OM1 8711   0.052   0.709   8.822  0.0000  0.0000  0.0000
 8712OM     OM1 8712   6.388   3.998   0.239  0.0000  0.0000  0.0000
 8713OM     OM1 8713   0.636   4.642   1.160  0.0000  0.0000  0.0000
 8714OM     OM1 8714   0.501   4.836   1.046  0.0000  0.0000  0.0000
 8715OM     OM1 8715   2.241   4.123   1.073  0.0000  0.0000  0.0000
 8716OM     OM1 8716   5.129   8.500   9.212  0.0000  0.0000  0.0000
 8717OM     OM1 8717   4.871   8.467   9.247  0.0000  0.0000  0.0000
 8718OM     OM1 8718   4.972   8.696   9.148  0.0000  0.0000  0.0000
 8719OM     OM1 8719   3.745   4.242   0.124  0.0000  0.0000  0.0000
 8720OM     OM1 8720   3.741   4.500   0.123  0.0000  0.0000  0.0000
 8721OM     OM1 8721   1.341   6.388   0.555  0.0000  0.0000  0.0000
 8722OM     OM1 8722   1.308   6.187   0.409  0.0000  0.0000  0.0000
 8723OM     OM1 8723   8.920   7.484   0.965  0.0000  0.0000  0.0000
 8724OM     OM1 8724   8.807   7.706   0.912  0.0000  0.0000  0.0000
 8725OM     OM1 8725   8.909   7.676   1.150  0.0000  0.0000  0.0000
 8726OM     OM1 8726   4.642   9.102   9.504  0.0000  0.0000  0.0000
 8727OM     OM1 8727   4.473   8.962   9.348  0.0000  0.0000  0.0000
 8728OM     OM1 8728   9.285   4.281   0.437  0.0000  0.0000  0.0000
 8729OM     OM1 8729   9.502   4.175   0.348  0.0000  0.0000  0.0000
 8730OM     OM1 8730   9.330   4.051   0.519  0.0000  0.0000  0.0000
 8731OM     OM1 8731   0.435   8.696   8.446  0.0000  0.0000  0.0000
 8732OM     OM1 8732   0.355   8.463   8.528  0.0000  0.0000  0.0000
 8733OM     OM1 8733   5.165   2.116   9.327  0.0000  0.0000  0.0000
 8734OM     OM1 8734   7.804   8.930   0.666  0.0000  0.0000  0.0000
 8735OM     OM1 8735   7.773   9.184   0.967  0.0000  0.0000  0.0000
 8736OM     OM1 8736   4.732   7.645   0.337  0.0000  0.0000  0.0000
 8737OM     OM1 8737   6.208   9.197   9.267  0.0000  0.0000  0.0000
 8738OM     OM1 8738   6.477   3.442   0.543  0.0000  0.0000  0.0000
 8739OM     OM1 8739   6.678   3.286   0.594  0.0000  0.0000  0.0000
 8740OM     OM1 8740   6.550   3.417   0.787  0.0000  0.0000  0.0000
 8741OM     OM1 8741   8.282   5.156   0.602  0.0000  0.0000  0.0000
 8742OM     OM1 8742   2.399   3.693   9.469  0.0000  0.0000  0.0000
 8743OM     OM1 8743   2.590   3.763   9.303  0.0000  0.0000  0.0000
 8744OM     OM1 8744   1.898   5.586   0.365  0.0000  0.0000  0.0000
 8745OM     OM1 8745   1.978   5.410   0.541  0.0000  0.0000  0.0000
 8746OM     OM1 8746   1.049   6.776   8.964  0.0000  0.0000  0.0000
 8747OM     OM1 8747   0.803   1.150   0.527  0.0000  0.0000  0.0000
 8748OM     OM1 8748   0.572   1.073   0.448  0.0000  0.0000  0.0000
 8749OM     OM1 8749   0.642   1.073   0.712  0.0000  0.0000  0.0000
 8750OM     OM1 8750   1.945   2.724   9.421  0.0000  0.0000  0.0000
 8751OM     OM1 8751   0.688   1.114   0.215  0.0000  0.0000  0.0000
 8752OM     OM1 8752   0.139   9.145   9.489  0.0000  0.0000  0.0000
 8753OM     OM1 8753   9.508   9.179   9.365  0.0000  0.0000  0.0000
 8754OM     OM1 8754   3.506   4.407   9.280  0.0000  0.0000  0.0000
 8755OM     OM1 8755   3.615   4.510   9.068  0.0000  0.0000  0.0000
 8756OM     OM1 8756   3.644   4.632   9.300  0.0000  0.0000  0.0000
 8757OM     OM1 8757   0.266   8.988   0.040  0.0000  0.0000  0.0000
 8758OM     OM1 8758   2.715   0.364   9.485  0.0000  0.0000  0.0000
 8759OM     OM1 8759   2.741   0.631   9.517  0.0000  0.0000  0.0000
 8760OM     OM1 8760   3.452   5.550   8.202  0.0000  0.0000  0.0000
 8761OM     OM1 8761   3.324   5.366   8.324  0.0000  0.0000  0.0000
 8762OM     OM1 8762   2.454   4.128   0.621  0.0000  0.0000  0.0000
 8763OM     OM1 8763   5.891   7.184   8.708  0.0000  0.0000  0.0000
 8764OM     OM1 8764   0.930   6.248   0.670  0.0000  0.0000  0.0000
 8765OM     OM1 8765   1.188   6.165   0.719  0.0000  0.0000  0.0000
 8766OM     OM1 8766   1.293   2.541   0.566  0.0000  0.0000  0.0000
 8767OM     OM1 8767   1.295   2.281   0.590  0.0000  0.0000  0.0000
 8768OM     OM1 8768   0.364   8.629   9.039  0.0000  0.0000  0.0000
 8769OM     OM1 8769   0.591   8.688   9.162  0.0000  0.0000  0.0000
 8770OM     OM1 8770   5.018   5.789   9.561  0.0000  0.0000  0.0000
 8771OM     OM1 8771   5.031   5.754   0.223  0.0000  0.0000  0.0000
 8772OM     OM1 8772   0.746   6.127   0.505  0.0000  0.0000  0.0000
 8773OM     OM1 8773   4.661   7.280   0.928  0.0000  0.0000  0.0000
 8774OM     OM1 8774   4.439   7.148   0.870  0.0000  0.0000  0.0000
 8775OM     OM1 8775   8.532   6.365   0.095  0.0000  0.0000  0.0000
 8776OM     OM1 8776   8.445   6.119   0.034  0.0000  0.0000  0.0000
 8777OM     OM1 8777   2.418   5.007   1.086  0.0000  0.0000  0.0000
 8778OM     OM1 8778   7.929   3.382   0.802  0.0000  0.0000  0.0000
 8779OM     OM1 8779   7.955   3.493   0.571  0.0000  0.0000  0.0000
 8780OM     OM1 8780   8.875   3.993   0.756  0.0000  0.0000  0.0000
 8781OM     OM1 8781   9.069   4.017   0.576  0.0000  0.0000  0.0000
 8782OM     OM1 8782   8.838   3.915   0.502  0.0000  0.0000  0.0000
 8783OM     OM1 8783   1.714   9.421   9.293  0.0000  0.0000  0.0000
 8784OM     OM1 8784   1.909   9.347   9.447  0.0000  0.0000  0.0000
 8785OM     OM1 8785   4.110   3.101   1.136  0.0000  0.0000  0.0000
 8786OM     OM1 8786   3.756   9.263   9.340  0.0000  0.0000  0.0000
 8787OM     OM1 8787   3.901   9.177   9.533  0.0000  0.0000  0.0000
 8788OM     OM1 8788   1.686   2.485   9.053  0.0000  0.0000  0.0000
 8789OM     OM1 8789   1.931   2.573   9.020  0.0000  0.0000  0.0000
 8790OM     OM1 8790   4.348   1.456   0.718  0.0000  0.0000  0.0000
 8791OM     OM1 8791   4.266   1.515   0.486  0.0000  0.0000  0.0000
 8792OM     OM1 8792   4.477   1.361   0.523  0.0000  0.0000  0.0000
 8793OM     OM1 8793   3.009   1.174   8.466  0.0000  0.0000  0.0000
 8794OM     OM1 8794   3.261   1.188   8.412  0.0000  0.0000  0.0000
 8795OM     OM1 8795   0.340   2.822   9.272  0.0000  0.0000  0.0000
 8796OM     OM1 8796   6.829   6.679   9.266  0.0000  0.0000  0.0000
 8797OM     OM1 8797   6.864   6.463   9.399  0.0000  0.0000  0.0000
 8798OM     OM1 8798   5.159   1.043   0.960  0.0000  0.0000  0.0000
 8799OM     OM1 8799   5.286   0.969   1.185  0.0000  0.0000  0.0000
 8800OM     OM1 8800   6.585   8.680   9.113  0.0000  0.0000  0.0000
 8801OM     OM1 8801   6.428   8.478   9.084  0.0000  0.0000  0.0000
 8802OM     OM1 8802   6.599   8.531   8.899  0.0000  0.0000  0.0000
 8803OM     OM1 8803   7.582   5.130   9.100  0.0000  0.0000  0.0000
 8804OM     OM1 8804   7.348   5.217   9.138  0.0000  0.0000  0.0000
 8805OM     OM1 8805   3.997   2.010   9.567  0.0000  0.0000  0.0000
 8806OM     OM1 8806   4.205   2.093   0.084  0.0000  0.0000  0.0000
 8807OM     OM1 8807   3.972   2.065   0.222  0.0000  0.0000  0.0000
 8808OM     OM1 8808   4.229   0.410   8.693  0.0000  0.0000  0.0000
 8809OM     OM1 8809   7.242   5.305   8.919  0.0000  0.0000  0.0000
 8810OM     OM1 8810   7.462   5.411   8.992  0.0000  0.0000  0.0000
 8811OM     OM1 8811   7.247   5.464   9.130  0.0000  0.0000  0.0000
 8812OM     OM1 8812   4.665   9.071   0.466  0.0000  0.0000  0.0000
 8813OM     OM1 8813   6.302   5.681   8.403  0.0000  0.0000  0.0000
 8814OM     OM1 8814   6.489   9.534   0.571  0.0000  0.0000  0.0000
 8815OM     OM1 8815   2.335   6.345   8.406  0.0000  0.0000  0.0000
 8816OM     OM1 8816   2.426   6.274   8.695  0.0000  0.0000  0.0000
 8817OM     OM1 8817   5.388   6.404   9.142  0.0000  0.0000  0.0000
 8818OM     OM1 8818   3.787   6.035   0.369  0.0000  0.0000  0.0000
 8819OM     OM1 8819   3.780   6.229   0.189  0.0000  0.0000  0.0000
 8820OM     OM1 8820   1.418   0.357   9.531  0.0000  0.0000  0.0000
 8821OM     OM1 8821   1.345   2.286   8.386  0.0000  0.0000  0.0000
 8822OM     OM1 8822   9.453   9.218   1.330  0.0000  0.0000  0.0000
 8823OM     OM1 8823   3.153   8.235   8.744  0.0000  0.0000  0.0000
 8824OM     OM1 8824   3.009   8.031   8.690  0.0000  0.0000  0.0000
 8825OM     OM1 8825   3.714   3.905   0.750  0.0000  0.0000  0.0000
 8826OM     OM1 8826   5.662   3.439   8.846  0.0000  0.0000  0.0000
 8827OM     OM1 8827   2.672   9.285   8.574  0.0000  0.0000  0.0000
 8828OM     OM1 8828   2.855   9.348   8.388  0.0000  0.0000  0.0000
 8829OM     OM1 8829   2.739   9.103   8.416  0.0000  0.0000  0.0000
 8830OM     OM1 8830   5.431   8.904   0.270  0.0000  0.0000  0.0000
 8831OM     OM1 8831   7.368   2.612   9.491  0.0000  0.0000  0.0000
 8832OM     OM1 8832   7.287   2.555   0.124  0.0000  0.0000  0.0000
 8833OM     OM1 8833   7.474   2.733   0.107  0.0000  0.0000  0.0000
 8834OM     OM1 8834   7.239   2.795   0.014  0.0000  0.0000  0.0000
 8835OM     OM1 8835   2.957   0.559   8.848  0.0000  0.0000  0.0000
 8836OM     OM1 8836   2.295   6.720   9.273  0.0000  0.0000  0.0000
 8837OM     OM1 8837   8.228   0.286   9.516  0.0000  0.0000  0.0000
 8838OM     OM1 8838   8.582   9.257   0.080  0.0000  0.0000  0.0000
 8839OM     OM1 8839   8.382   9.137   9.584  0.0000  0.0000  0.0000
 8840OM     OM1 8840   8.366   9.385   0.081  0.0000  0.0000  0.0000
 8841OM     OM1 8841   4.315   6.831   1.270  0.0000  0.0000  0.0000
 8842OM     OM1 8842   4.369   6.956   1.039  0.0000  0.0000  0.0000
 8843OM     OM1 8843   5.718   6.612   8.573  0.0000  0.0000  0.0000
 8844OM     OM1 8844   5.495   6.456   8.582  0.0000  0.0000  0.0000
 8845OM     OM1 8845   4.115   6.487   9.286  0.0000  0.0000  0.0000
 8846OM     OM1 8846   3.992   6.553   9.496  0.0000  0.0000  0.0000
 8847OM     OM1 8847   4.418   9.278   0.657  0.0000  0.0000  0.0000
 8848OM     OM1 8848   4.409   0.096   0.729  0.0000  0.0000  0.0000
 8849OM     OM1 8849   9.043   2.242   0.357  0.0000  0.0000  0.0000
 8850OM     OM1 8850   9.120   5.706   0.162  0.0000  0.0000  0.0000
 8851OM     OM1 8851   0.831   4.171   8.316  0.0000  0.0000  0.0000
 8852OM     OM1 8852   3.729   9.066   8.892  0.0000  0.0000  0.0000
 8853OM     OM1 8853   3.754   9.078   9.147  0.0000  0.0000  0.0000
 8854OM     OM1 8854   3.605   8.899   9.053  0.0000  0.0000  0.0000
 8855OM     OM1 8855   3.885   2.643   9.302  0.0000  0.0000  0.0000
 8856OM     OM1 8856   3.635   2.899   9.203  0.0000  0.0000  0.0000
 8857OM     OM1 8857   3.732   3.110   9.321  0.0000  0.0000  0.0000
 8858OM     OM1 8858   7.124   4.400   0.241  0.0000  0.0000  0.0000
 8859OM     OM1 8859   7.332   4.316   0.115  0.0000  0.0000  0.0000
 8860OM     OM1 8860   7.212   4.539   0.043  0.0000  0.0000  0.0000
 8861OM     OM1 8861   7.854   5.359   0.755  0.0000  0.0000  0.0000
 8862OM     OM1 8862   7.852   5.159   0.587  0.0000  0.0000  0.0000
 8863OM     OM1 8863   8.063   5.312   0.579  0.0000  0.0000  0.0000
 8864OM     OM1 8864   0.818   1.809   8.508  0.0000  0.0000  0.0000
 8865OM     OM1 8865   0.783   2.044   8.367  0.0000  0.0000  0.0000
 8866OM     OM1 8866   6.337   1.434   8.449  0.0000  0.0000  0.0000
 8867OM     OM1 8867   6.123   1.316   8.381  0.0000  0.0000  0.0000
 8868OM     OM1 8868   5.868   2.132   0.849  0.0000  0.0000  0.0000
 8869OM     OM1 8869   3.172   9.488   1.259  0.0000  0.0000  0.0000
 8870OM     OM1 8870   0.787   6.732   0.587  0.0000  0.0000  0.0000
 8871OM     OM1 8871   0.639   6.779   0.370  0.0000  0.0000  0.0000
 8872OM     OM1 8872   8.541   5.923   9.505  0.0000  0.0000  0.0000
 8873OM     OM1 8873   9.202   7.931   8.508  0.0000  0.0000  0.0000
 8874OM     OM1 8874   9.097   8.131   8.385  0.0000  0.0000  0.0000
 8875OM     OM1 8875   8.961   7.908   8.423  0.0000  0.0000  0.0000
 8876OM     OM1 8876   6.343   4.666   1.225  0.0000  0.0000  0.0000
 8877OM     OM1 8877   4.345   2.673   1.131  0.0000  0.0000  0.0000
 8878OM     OM1 8878   3.823   8.529   8.349  0.0000  0.0000  0.0000
 8879OM     OM1 8879   3.848   8.287   8.273  0.0000  0.0000  0.0000
 8880OM     OM1 8880   6.938   1.753   9.208  0.0000  0.0000  0.0000
 8881OM     OM1 8881   8.591   0.704   8.796  0.0000  0.0000  0.0000
 8882OM     OM1 8882   8.567   0.715   9.052  0.0000  0.0000  0.0000
 8883OM     OM1 8883   4.926   8.431   0.844  0.0000  0.0000  0.0000
 8884OM     OM1 8884   4.912   4.225   9.366  0.0000  0.0000  0.0000
 8885OM     OM1 8885   5.155   4.238   9.473  0.0000  0.0000  0.0000
 8886OM     OM1 8886   3.734   5.285   0.288  0.0000  0.0000  0.0000
 8887OM     OM1 8887   3.571   5.170   0.457  0.0000  0.0000  0.0000
 8888OM     OM1 8888   3.284   8.777   0.548  0.0000  0.0000  0.0000
 8889OM     OM1 8889   3.362   8.902   0.340  0.0000  0.0000  0.0000
 8890OM     OM1 8890   3.104   8.868   0.401  0.0000  0.0000  0.0000
 8891OM     OM1 8891   2.157   6.881   8.821  0.0000  0.0000  0.0000
 8892OM     OM1 8892   2.173   6.783   9.053  0.0000  0.0000  0.0000
 8893OM     OM1 8893   5.807   3.793   9.412  0.0000  0.0000  0.0000
 8894OM     OM1 8894   5.582   3.867   0.346  0.0000  0.0000  0.0000
 8895OM     OM1 8895   4.785   4.958   0.713  0.0000  0.0000  0.0000
 8896OM     OM1 8896   7.919   7.569   8.952  0.0000  0.0000  0.0000
 8897OM     OM1 8897   8.054   7.653   8.736  0.0000  0.0000  0.0000
 8898OM     OM1 8898   7.979   7.415   8.760  0.0000  0.0000  0.0000
 8899OM     OM1 8899   9.597   6.069   8.875  0.0000  0.0000  0.0000
 8900OM     OM1 8900   4.918   4.361   0.653  0.0000  0.0000  0.0000
 8901OM     OM1 8901   4.930   4.132   0.762  0.0000  0.0000  0.0000
 8902OM     OM1 8902   0.033   3.251   8.905  0.0000  0.0000  0.0000
 8903OM     OM1 8903   9.387   3.216   8.959  0.0000  0.0000  0.0000
 8904OM     OM1 8904   7.876   2.479   0.216  0.0000  0.0000  0.0000
 8905OM     OM1 8905   8.065   2.527   0.039  0.0000  0.0000  0.0000
 8906OM     OM1 8906   8.111   2.405   0.265  0.0000  0.0000  0.0000
 8907OM     OM1 8907   0.268   9.172   8.622  0.0000  0.0000  0.0000
 8908OM     OM1 8908   4.049   1.346   1.245  0.0000  0.0000  0.0000
 8909OM     OM1 8909   3.883   2.694   8.829  0.0000  0.0000  0.0000
 8910OM     OM1 8910   3.753   2.868   8.972  0.0000  0.0000  0.0000
 8911OM     OM1 8911   8.950   1.474   8.849  0.0000  0.0000  0.0000
 8912OM     OM1 8912   8.978   1.720   8.911  0.0000  0.0000  0.0000
 8913OM     OM1 8913   3.132   4.184   1.074  0.0000  0.0000  0.0000
 8914OM     OM1 8914   3.588   4.274   8.982  0.0000  0.0000  0.0000
 8915OM     OM1 8915   3.780   4.427   8.888  0.0000  0.0000  0.0000
 8916OM     OM1 8916   2.037   1.301   8.299  0.0000  0.0000  0.0000
 8917OM     OM1 8917   1.905   4.229   0.218  0.0000  0.0000  0.0000
 8918OM     OM1 8918   2.200   1.908   0.042  0.0000  0.0000  0.0000
 8919OM     OM1 8919   2.107   2.063   9.464  0.0000  0.0000  0.0000
 8920OM     OM1 8920   2.178   1.819   9.398  0.0000  0.0000  0.0000
 8921OM     OM1 8921   7.638   9.434   9.349  0.0000  0.0000  0.0000
 8922OM     OM1 8922   7.679   9.206   9.227  0.0000  0.0000  0.0000
 8923OM     OM1 8923   3.393   6.662   1.348  0.0000  0.0000  0.0000
 8924OM     OM1 8924   7.863   8.231   9.045  0.0000  0.0000  0.0000
 8925OM     OM1 8925   7.620   8.150   9.079  0.0000  0.0000  0.0000
 8926OM     OM1 8926   7.828   7.976   9.105  0.0000  0.0000  0.0000
 8927OM     OM1 8927   4.316   7.682   1.336  0.0000  0.0000  0.0000
 8928OM     OM1 8928   9.179   1.220   8.238  0.0000  0.0000  0.0000
 8929OM     OM1 8929   8.480   8.586   9.307  0.0000  0.0000  0.0000
 8930OM     OM1 8930   8.448   2.775   8.884  0.0000  0.0000  0.0000
 8931OM     OM1 8931   8.637   2.939   8.897  0.0000  0.0000  0.0000
 8932OM     OM1 8932   8.685   2.672   8.902  0.0000  0.0000  0.0000
 8933OM     OM1 8933   8.574   2.797   9.106  0.0000  0.0000  0.0000
 8934OM     OM1 8934   3.401   0.842   9.356  0.0000  0.0000  0.0000
 8935OM     OM1 8935   3.422   0.843   9.097  0.0000  0.0000  0.0000
 8936OM     OM1 8936   5.517   4.467   0.400  0.0000  0.0000  0.0000
 8937OM     OM1 8937   0.720   5.847   1.008  0.0000  0.0000  0.0000
 8938OM     OM1 8938   0.659   5.884   1.263  0.0000  0.0000  0.0000
 8939OM     OM1 8939   8.565   4.548   9.289  0.0000  0.0000  0.0000
 8940OM     OM1 8940   0.537   6.004   0.405  0.0000  0.0000  0.0000
 8941OM     OM1 8941   3.644   4.717   8.747  0.0000  0.0000  0.0000
 8942OM     OM1 8942   2.168   3.011   8.283  0.0000  0.0000  0.0000
 8943OM     OM1 8943   2.902   2.853   9.206  0.0000  0.0000  0.0000
 8944OM     OM1 8944   2.736   2.660   9.162  0.0000  0.0000  0.0000
 8945OM     OM1 8945   2.708   2.905   9.054  0.0000  0.0000  0.0000
 8946OM     OM1 8946   2.893   2.737   8.970  0.0000  0.0000  0.0000
 8947OM     OM1 8947   8.608   4.540   0.739  0.0000  0.0000  0.0000
 8948OM     OM1 8948   8.790   4.514   0.913  0.0000  0.0000  0.0000
 8949OM     OM1 8949   2.472   2.019   0.267  0.0000  0.0000  0.0000
 8950OM     OM1 8950   2.347   2.248   0.264  0.0000  0.0000  0.0000
 8951OM     OM1 8951   2.567   2.211   0.113  0.0000  0.0000  0.0000
 8952OM     OM1 8952   2.591   2.227   0.364  0.0000  0.0000  0.0000
 8953OM     OM1 8953   4.244   6.176   9.293  0.0000  0.0000  0.0000
 8954OM     OM1 8954   1.789   3.686   1.134  0.0000  0.0000  0.0000
 8955OM     OM1 8955   1.590   3.799   1.023  0.0000  0.0000  0.0000
 8956OM     OM1 8956   1.645   3.865   1.269  0.0000  0.0000  0.0000
 8957OM     OM1 8957   9.229   6.309   0.660  0.0000  0.0000  0.0000
 8958OM     OM1 8958   9.385   6.120   0.718  0.0000  0.0000  0.0000
 8959OM     OM1 8959   9.132   6.081   0.771  0.0000  0.0000  0.0000
 8960OM     OM1 8960   9.116   6.601   9.484  0.0000  0.0000  0.0000
 8961OM     OM1 8961   0.924   0.892   1.354  0.0000  0.0000  0.0000
 8962OM     OM1 8962   8.773   5.191   8.318  0.0000  0.0000  0.0000
 8963OM     OM1 8963   6.636   9.345   0.029  0.0000  0.0000  0.0000
 8964OM     OM1 8964   1.363   9.066   9.252  0.0000  0.0000  0.0000
 8965OM     OM1 8965   1.553   9.242   9.198  0.0000  0.0000  0.0000
 8966OM     OM1 8966   1.552   9.109   9.426  0.0000  0.0000  0.0000
 8967OM     OM1 8967   9.273   6.792   9.393  0.0000  0.0000  0.0000
 8968OM     OM1 8968   2.411   5.789   8.692  0.0000  0.0000  0.0000
 8969OM     OM1 8969   2.502   5.957   8.870  0.0000  0.0000  0.0000
 8970OM     OM1 8970   7.663   5.451   0.914  0.0000  0.0000  0.0000
 8971OM     OM1 8971   6.121   4.285   0.761  0.0000  0.0000  0.0000
 8972OM     OM1 8972   6.361   4.296   0.885  0.0000  0.0000  0.0000
 8973OM     OM1 8973   6.244   4.066   0.838  0.0000  0.0000  0.0000
 8974OM     OM1 8974   5.194   5.341   1.200  0.0000  0.0000  0.0000
 8975OM     OM1 8975   4.550   8.502   1.233  0.0000  0.0000  0.0000
 8976OM     OM1 8976   2.808   7.193   9.040  0.0000  0.0000  0.0000
 8977OM     OM1 8977   2.731   7.603   8.776  0.0000  0.0000  0.0000
 8978OM     OM1 8978   2.761   7.448   8.581  0.0000  0.0000  0.0000
 8979OM     OM1 8979   7.186   1.045   1.132  0.0000  0.0000  0.0000
 8980OM     OM1 8980   7.018   1.250   1.143  0.0000  0.0000  0.0000
 8981OM     OM1 8981   7.023   1.096   0.942  0.0000  0.0000  0.0000
 8982OM     OM1 8982   8.170   7.425   9.394  0.0000  0.0000  0.0000
 8983OM     OM1 8983   8.245   7.291   0.006  0.0000  0.0000  0.0000
 8984OM     OM1 8984   0.059   4.757   8.583  0.0000  0.0000  0.0000
 8985OM     OM1 8985   0.227   4.845   8.403  0.0000  0.0000  0.0000
 8986OM     OM1 8986   0.697   8.841   0.409  0.0000  0.0000  0.0000
 8987OM     OM1 8987   6.187   1.951   8.854  0.0000  0.0000  0.0000
 8988OM     OM1 8988   6.213   1.911   9.114  0.0000  0.0000  0.0000
 8989OM     OM1 8989   6.166   2.153   9.014  0.0000  0.0000  0.0000
 8990OM     OM1 8990   1.707   7.936   1.103  0.0000  0.0000  0.0000
 8991OM     OM1 8991   3.583   3.934   0.454  0.0000  0.0000  0.0000
 8992OM     OM1 8992   3.806   3.793   0.413  0.0000  0.0000  0.0000
 8993OM     OM1 8993   6.332   0.520   0.818  0.0000  0.0000  0.0000
 8994OM     OM1 8994   6.105   0.622   0.937  0.0000  0.0000  0.0000
 8995OM     OM1 8995   8.673   0.177   8.907  0.0000  0.0000  0.0000
 8996OM     OM1 8996   2.478   8.185   0.442  0.0000  0.0000  0.0000
 8997OM     OM1 8997   2.606   8.123   0.658  0.0000  0.0000  0.0000
 8998OM     OM1 8998   6.347   2.434   9.372  0.0000  0.0000  0.0000
 8999OM     OM1 8999   0.679   7.737   0.416  0.0000  0.0000  0.0000
 9000OM     OM1 9000   0.809   7.864   0.594  0.0000  0.0000  0.0000
 9001OM     OM1 9001   3.171   8.505   8.314  0.0000  0.0000  0.0000
 9002OM     OM1 9002   0.975   9.445   8.639  0.0000  0.0000  0.0000
 9003OM     OM1 9003   0.796   9.601   8.538  0.0000  0.0000  0.0000
 9004OM     OM1 9004   0.803   9.352   8.460  0.0000  0.0000  0.0000
 9005OM     OM1 9005   3.487   7.630   1.231  0.0000  0.0000  0.0000
 9006OM     OM1 9006   7.641   8.773   0.381  0.0000  0.0000  0.0000
 9007OM     OM1 9007   7.668   8.755   0.134  0.0000  0.0000  0.0000
 9008OM     OM1 9008   7.682   8.533   0.266  0.0000  0.0000  0.0000
 9009OM     OM1 9009   2.407   9.272   8.603  0.0000  0.0000  0.0000
 9010OM     OM1 9010   1.047   8.028   8.352  0.0000  0.0000  0.0000
 9011OM     OM1 9011   5.180   9.437   1.285  0.0000  0.0000  0.0000
 9012OM     OM1 9012   5.144   0.086   1.184  0.0000  0.0000  0.0000
 9013OM     OM1 9013   2.986   5.541   9.019  0.0000  0.0000  0.0000
 9014OM     OM1 9014   2.972   5.283   8.951  0.0000  0.0000  0.0000
 9015OM     OM1 9015   5.848   6.974   0.726  0.0000  0.0000  0.0000
 9016OM     OM1 9016   5.744   7.205   0.675  0.0000  0.0000  0.0000
 9017OM     OM1 9017   5.777   6.751   0.609  0.0000  0.0000  0.0000
 9018OM     OM1 9018   7.898   4.424   0.840  0.0000  0.0000  0.0000
 9019OM     OM1 9019   4.311   3.059   9.367  0.0000  0.0000  0.0000
 9020OM     OM1 9020   3.227   8.044   0.856  0.0000  0.0000  0.0000
 9021OM     OM1 9021   3.096   8.076   1.092  0.0000  0.0000  0.0000
 9022OM     OM1 9022   3.606   0.916   0.112  0.0000  0.0000  0.0000
 9023OM     OM1 9023   3.580   0.770   0.327  0.0000  0.0000  0.0000
 9024OM     OM1 9024   3.856   4.291   8.478  0.0000  0.0000  0.0000
 9025OM     OM1 9025   4.035   4.395   8.316  0.0000  0.0000  0.0000
 9026OM     OM1 9026   4.775   1.667   0.799  0.0000  0.0000  0.0000
 9027OM     OM1 9027   4.687   1.790   0.589  0.0000  0.0000  0.0000
 9028OM     OM1 9028   4.617   1.880   0.826  0.0000  0.0000  0.0000
 9029OM     OM1 9029   3.786   4.737   8.523  0.0000  0.0000  0.0000
 9030OM     OM1 9030   3.878   4.601   8.729  0.0000  0.0000  0.0000
 9031OM     OM1 9031   7.651   0.521   1.142  0.0000  0.0000  0.0000
 9032OM     OM1 9032   7.847   0.435   1.287  0.0000  0.0000  0.0000
 9033OM     OM1 9033   7.892   0.597   1.087  0.0000  0.0000  0.0000
 9034OM     OM1 9034   0.079   1.651   8.588  0.0000  0.0000  0.0000
 9035OM     OM1 9035   1.649   8.824   8.400  0.0000  0.0000  0.0000
 9036OM     OM1 9036   6.045   0.018   0.045  0.0000  0.0000  0.0000
 9037OM     OM1 9037   6.250   0.132   0.140  0.0000  0.0000  0.0000
 9038OM     OM1 9038   0.593   5.454   0.240  0.0000  0.0000  0.0000
 9039OM     OM1 9039   0.657   5.592   0.025  0.0000  0.0000  0.0000
 9040OM     OM1 9040   1.841   6.863   9.169  0.0000  0.0000  0.0000
 9041OM     OM1 9041   1.842   7.009   9.588  0.0000  0.0000  0.0000
 9042OM     OM1 9042   1.856   6.800   9.426  0.0000  0.0000  0.0000
 9043OM     OM1 9043   2.068   6.838   9.282  0.0000  0.0000  0.0000
 9044OM     OM1 9044   3.782   9.116   0.565  0.0000  0.0000  0.0000
 9045OM     OM1 9045   4.318   2.183   9.455  0.0000  0.0000  0.0000
 9046OM     OM1 9046   2.306   6.266   0.844  0.0000  0.0000  0.0000
 9047OM     OM1 9047   2.410   6.150   1.048  0.0000  0.0000  0.0000
 9048OM     OM1 9048   9.182   8.297   1.302  0.0000  0.0000  0.0000
 9049OM     OM1 9049   5.913   5.997   9.118  0.0000  0.0000  0.0000
 9050OM     OM1 9050   5.889   6.183   9.303  0.0000  0.0000  0.0000
 9051OM     OM1 9051   5.733   5.318   8.634  0.0000  0.0000  0.0000
 9052OM     OM1 9052   5.996   5.324   8.701  0.0000  0.0000  0.0000
 9053OM     OM1 9053   5.183   3.759   8.578  0.0000  0.0000  0.0000
 9054OM     OM1 9054   7.665   7.765   1.291  0.0000  0.0000  0.0000
 9055OM     OM1 9055   7.843   7.640   1.164  0.0000  0.0000  0.0000
 9056OM     OM1 9056   8.774   5.646   8.554  0.0000  0.0000  0.0000
 9057OM     OM1 9057   7.947   6.566   0.224  0.0000  0.0000  0.0000
 9058OM     OM1 9058   8.202   6.626   0.153  0.0000  0.0000  0.0000
 9059OM     OM1 9059   8.104   6.652   0.404  0.0000  0.0000  0.0000
 9060OM     OM1 9060   3.188   4.148   0.820  0.0000  0.0000  0.0000
 9061OM     OM1 9061   3.513   3.852   1.090  0.0000  0.0000  0.0000
 9062OM     OM1 9062   2.597   4.434   0.020  0.0000  0.0000  0.0000
 9063OM     OM1 9063   2.465   4.283   0.170  0.0000  0.0000  0.0000
 9064OM     OM1 9064   2.458   4.552   0.201  0.0000  0.0000  0.0000
 9065OM     OM1 9065   0.806   3.676   9.546  0.0000  0.0000  0.0000
 9066OM     OM1 9066   2.213   7.332   0.496  0.0000  0.0000  0.0000
 9067OM     OM1 9067   3.761   3.448   8.314  0.0000  0.0000  0.0000
 9068OM     OM1 9068   5.254   2.714   0.016  0.0000  0.0000  0.0000
 9069OM     OM1 9069   5.235   2.645   0.243  0.0000  0.0000  0.0000
 9070OM     OM1 9070   3.381   7.728   0.002  0.0000  0.0000  0.0000
 9071OM     OM1 9071   3.550   7.902   9.534  0.0000  0.0000  0.0000
 9072OM     OM1 9072   6.015   6.377   0.979  0.0000  0.0000  0.0000
 9073OM     OM1 9073   6.218   6.329   0.605  0.0000  0.0000  0.0000
 9074OM     OM1 9074   3.043   5.838   0.465  0.0000  0.0000  0.0000
 9075OM     OM1 9075   3.283   5.929   0.523  0.0000  0.0000  0.0000
 9076OM     OM1 9076   0.646   2.657   0.651  0.0000  0.0000  0.0000
 9077OM     OM1 9077   0.581   2.874   0.787  0.0000  0.0000  0.0000
 9078OM     OM1 9078   0.756   2.879   0.587  0.0000  0.0000  0.0000
 9079OM     OM1 9079   0.501   2.860   0.547  0.0000  0.0000  0.0000
 9080OM     OM1 9080   3.221   9.049   9.115  0.0000  0.0000  0.0000
 9081OM     OM1 9081   3.205   8.958   8.875  0.0000  0.0000  0.0000
 9082OM     OM1 9082   3.316   9.349   8.801  0.0000  0.0000  0.0000
 9083OM     OM1 9083   3.141   9.208   8.923  0.0000  0.0000  0.0000
 9084OM     OM1 9084   6.760   2.340   0.572  0.0000  0.0000  0.0000
 9085OM     OM1 9085   5.971   1.898   0.786  0.0000  0.0000  0.0000
 9086OM     OM1 9086   0.855   1.099   8.754  0.0000  0.0000  0.0000
 9087OM     OM1 9087   6.867   5.503   0.661  0.0000  0.0000  0.0000
 9088OM     OM1 9088   4.402   1.419   1.200  0.0000  0.0000  0.0000
 9089OM     OM1 9089   4.388   1.681   1.208  0.0000  0.0000  0.0000
 9090OM     OM1 9090   4.577   1.548   1.328  0.0000  0.0000  0.0000
 9091OM     OM1 9091   8.715   7.848   8.489  0.0000  0.0000  0.0000
 9092OM     OM1 9092   8.517   7.844   8.329  0.0000  0.0000  0.0000
 9093OM     OM1 9093   8.561   8.055   8.513  0.0000  0.0000  0.0000
 9094OM     OM1 9094   8.687   8.287   8.513  0.0000  0.0000  0.0000
 9095OM     OM1 9095   8.740   8.116   8.695  0.0000  0.0000  0.0000
 9096OM     OM1 9096   3.399   8.796   8.938  0.0000  0.0000  0.0000
 9097OM     OM1 9097   3.216   8.724   8.772  0.0000  0.0000  0.0000
 9098OM     OM1 9098   4.866   6.036   8.398  0.0000  0.0000  0.0000
 9099OM     OM1 9099   8.970   8.781   0.162  0.0000  0.0000  0.0000
 9100OM     OM1 9100   8.964   8.711   9.521  0.0000  0.0000  0.0000
 9101OM     OM1 9101   7.065   7.165   9.417  0.0000  0.0000  0.0000
 9102OM     OM1 9102   6.968   7.077   9.194  0.0000  0.0000  0.0000
 9103OM     OM1 9103   4.521   0.147   1.223  0.0000  0.0000  0.0000
 9104OM     OM1 9104   4.669   0.368   1.240  0.0000  0.0000  0.0000
 9105OM     OM1 9105   2.830   8.013   9.582  0.0000  0.0000  0.0000
 9106OM     OM1 9106   3.059   8.131   9.479  0.0000  0.0000  0.0000
 9107OM     OM1 9107   3.035   7.886   9.581  0.0000  0.0000  0.0000
 9108OM     OM1 9108   2.925   9.537   0.027  0.0000  0.0000  0.0000
 9109OM     OM1 9109   3.103   4.031   0.603  0.0000  0.0000  0.0000
 9110OM     OM1 9110   5.234   8.340   8.487  0.0000  0.0000  0.0000
 9111OM     OM1 9111   5.472   8.140   8.371  0.0000  0.0000  0.0000
 9112OM     OM1 9112   5.147   8.136   8.627  0.0000  0.0000  0.0000
 9113OM     OM1 9113   1.556   8.225   0.877  0.0000  0.0000  0.0000
 9114OM     OM1 9114   0.567   7.721   0.190  0.0000  0.0000  0.0000
 9115OM     OM1 9115   0.817   7.693   0.108  0.0000  0.0000  0.0000
 9116OM     OM1 9116   0.626   7.666   9.546  0.0000  0.0000  0.0000
 9117OM     OM1 9117   7.204   3.872   0.854  0.0000  0.0000  0.0000
 9118OM     OM1 9118   7.160   4.026   1.048  0.0000  0.0000  0.0000
 9119OM     OM1 9119   7.071   3.822   1.182  0.0000  0.0000  0.0000
 9120OM     OM1 9120   7.145   4.124   0.795  0.0000  0.0000  0.0000
 9121OM     OM1 9121   7.134   2.545   9.394  0.0000  0.0000  0.0000
 9122OM     OM1 9122   6.959   2.486   9.209  0.0000  0.0000  0.0000
 9123OM     OM1 9123   7.152   0.395   8.798  0.0000  0.0000  0.0000
 9124OM     OM1 9124   7.288   0.238   8.653  0.0000  0.0000  0.0000
 9125OM     OM1 9125   7.068   0.148   8.785  0.0000  0.0000  0.0000
 9126OM     OM1 9126   7.126   9.604   8.990  0.0000  0.0000  0.0000
 9127OM     OM1 9127   3.177   7.761   0.147  0.0000  0.0000  0.0000
 9128OM     OM1 9128   2.936   7.682   0.143  0.0000  0.0000  0.0000
 9129OM     OM1 9129   6.408   9.203   9.097  0.0000  0.0000  0.0000
 9130OM     OM1 9130   2.779   4.572   9.081  0.0000  0.0000  0.0000
 9131OM     OM1 9131   2.847   4.331   9.033  0.0000  0.0000  0.0000
 9132OM     OM1 9132   3.043   4.509   9.067  0.0000  0.0000  0.0000
 9133OM     OM1 9133   2.904   4.425   9.268  0.0000  0.0000  0.0000
 9134OM     OM1 9134   0.833   0.234   9.578  0.0000  0.0000  0.0000
 9135OM     OM1 9135   6.186   4.587   0.240  0.0000  0.0000  0.0000
 9136OM     OM1 9136   6.170   4.374   0.390  0.0000  0.0000  0.0000
 9137OM     OM1 9137   3.550   2.718   9.027  0.0000  0.0000  0.0000
 9138OM     OM1 9138   3.471   2.484   8.922  0.0000  0.0000  0.0000
 9139OM     OM1 9139   4.077   0.730   8.333  0.0000  0.0000  0.0000
 9140OM     OM1 9140   4.141   0.979   8.320  0.0000  0.0000  0.0000
 9141OM     OM1 9141   2.279   1.338   0.117  0.0000  0.0000  0.0000
 9142OM     OM1 9142   4.561   2.967   9.362  0.0000  0.0000  0.0000
 9143OM     OM1 9143   7.305   4.944   1.200  0.0000  0.0000  0.0000
 9144OM     OM1 9144   7.244   4.700   1.120  0.0000  0.0000  0.0000
 9145OM     OM1 9145   8.578   8.782   0.653  0.0000  0.0000  0.0000
 9146OM     OM1 9146   9.197   8.828   9.561  0.0000  0.0000  0.0000
 9147OM     OM1 9147   9.182   9.076   0.048  0.0000  0.0000  0.0000
 9148OM     OM1 9148   9.328   9.017   9.447  0.0000  0.0000  0.0000
 9149OM     OM1 9149   2.208   9.108   9.399  0.0000  0.0000  0.0000
 9150OM     OM1 9150   2.388   9.258   9.291  0.0000  0.0000  0.0000
 9151OM     OM1 9151   2.278   9.067   9.151  0.0000  0.0000  0.0000
 9152OM     OM1 9152   3.659   7.060   0.268  0.0000  0.0000  0.0000
 9153OM     OM1 9153   3.653   7.148   0.509  0.0000  0.0000  0.0000
 9154OM     OM1 9154   3.434   7.157   0.384  0.0000  0.0000  0.0000
 9155OM     OM1 9155   6.755   7.565   8.901  0.0000  0.0000  0.0000
 9156OM     OM1 9156   7.002   8.314   0.239  0.0000  0.0000  0.0000
 9157OM     OM1 9157   7.264   8.332   0.260  0.0000  0.0000  0.0000
 9158OM     OM1 9158   6.713   8.482   0.831  0.0000  0.0000  0.0000
 9159OM     OM1 9159   6.973   8.285   1.044  0.0000  0.0000  0.0000
 9160OM     OM1 9160   3.207   1.510   0.385  0.0000  0.0000  0.0000
 9161OM     OM1 9161   3.261   1.566   0.626  0.0000  0.0000  0.0000
 9162OM     OM1 9162   3.332   1.337   0.528  0.0000  0.0000  0.0000
 9163OM     OM1 9163   0.926   2.341   8.489  0.0000  0.0000  0.0000
 9164OM     OM1 9164   0.746   2.299   8.315  0.0000  0.0000  0.0000
 9165OM     OM1 9165   0.675   2.403   8.548  0.0000  0.0000  0.0000
 9166OM     OM1 9166   0.759   6.793   0.144  0.0000  0.0000  0.0000
 9167OM     OM1 9167   0.500   6.811   0.145  0.0000  0.0000  0.0000
 9168OM     OM1 9168   4.533   8.329   8.373  0.0000  0.0000  0.0000
 9169OM     OM1 9169   4.756   1.775   8.585  0.0000  0.0000  0.0000
 9170OM     OM1 9170   8.516   2.472   0.377  0.0000  0.0000  0.0000
 9171OM     OM1 9171   8.672   2.596   0.203  0.0000  0.0000  0.0000
 9172OM     OM1 9172   3.493   2.822   8.403  0.0000  0.0000  0.0000
 9173OM     OM1 9173   8.585   8.270   0.291  0.0000  0.0000  0.0000
 9174OM     OM1 9174   8.781   7.896   0.219  0.0000  0.0000  0.0000
 9175OM     OM1 9175   8.651   8.064   0.419  0.0000  0.0000  0.0000
 9176OM     OM1 9176   4.573   8.671   0.818  0.0000  0.0000  0.0000
 9177OM     OM1 9177   4.489   8.869   0.684  0.0000  0.0000  0.0000
 9178OM     OM1 9178   1.359   6.646   0.573  0.0000  0.0000  0.0000
 9179OM     OM1 9179   0.958   9.124   8.691  0.0000  0.0000  0.0000
 9180OM     OM1 9180   1.313   8.882   8.419  0.0000  0.0000  0.0000
 9181OM     OM1 9181   1.102   9.267   8.530  0.0000  0.0000  0.0000
 9182OM     OM1 9182   7.045   7.711   0.861  0.0000  0.0000  0.0000
 9183OM     OM1 9183   9.334   6.050   8.425  0.0000  0.0000  0.0000
 9184OM     OM1 9184   9.479   6.032   8.645  0.0000  0.0000  0.0000
 9185OM     OM1 9185   4.190   7.578   9.164  0.0000  0.0000  0.0000
 9186OM     OM1 9186   4.371   8.442   9.418  0.0000  0.0000  0.0000
 9187OM     OM1 9187   7.591   5.296   8.790  0.0000  0.0000  0.0000
 9188OM     OM1 9188   1.393   6.050   0.613  0.0000  0.0000  0.0000
 9189OM     OM1 9189   8.281   5.480   1.349  0.0000  0.0000  0.0000
 9190OM     OM1 9190   8.275   5.241   1.240  0.0000  0.0000  0.0000
 9191OM     OM1 9191   8.477   5.320   1.384  0.0000  0.0000  0.0000
 9192OM     OM1 9192   2.826   1.129   8.643  0.0000  0.0000  0.0000
 9193OM     OM1 9193   1.994   1.134   1.295  0.0000  0.0000  0.0000
 9194OM     OM1 9194   9.335   5.109   1.367  0.0000  0.0000  0.0000
 9195OM     OM1 9195   7.558   8.149   0.857  0.0000  0.0000  0.0000
 9196OM     OM1 9196   5.512   4.089   0.206  0.0000  0.0000  0.0000
 9197OM     OM1 9197   5.380   4.179   9.602  0.0000  0.0000  0.0000
 9198OM     OM1 9198   3.807   0.301   0.928  0.0000  0.0000  0.0000
 9199OM     OM1 9199   3.917   0.077   0.869  0.0000  0.0000  0.0000
 9200OM     OM1 9200   4.042   0.310   0.806  0.0000  0.0000  0.0000
 9201OM     OM1 9201   0.817   6.940   1.025  0.0000  0.0000  0.0000
 9202OM     OM1 9202   1.044   6.983   1.144  0.0000  0.0000  0.0000
 9203OM     OM1 9203   6.924   3.526   9.536  0.0000  0.0000  0.0000
 9204OM     OM1 9204   6.881   3.327   0.108  0.0000  0.0000  0.0000
 9205OM     OM1 9205   2.933   3.956   8.733  0.0000  0.0000  0.0000
 9206OM     OM1 9206   2.816   4.093   8.920  0.0000  0.0000  0.0000
 9207OM     OM1 9207   3.956   5.012   9.383  0.0000  0.0000  0.0000
 9208OM     OM1 9208   3.861   4.786   9.306  0.0000  0.0000  0.0000
 9209OM     OM1 9209   4.081   4.886   9.189  0.0000  0.0000  0.0000
 9210OM     OM1 9210   9.037   5.393   1.090  0.0000  0.0000  0.0000
 9211OM     OM1 9211   9.036   5.304   0.852  0.0000  0.0000  0.0000
 9212OM     OM1 9212   8.829   5.260   1.016  0.0000  0.0000  0.0000
 9213OM     OM1 9213   2.002   5.249   9.300  0.0000  0.0000  0.0000
 9214OM     OM1 9214   9.313   7.357   9.066  0.0000  0.0000  0.0000
 9215OM     OM1 9215   9.187   4.431   0.953  0.0000  0.0000  0.0000
 9216OM     OM1 9216   8.856   4.367   1.112  0.0000  0.0000  0.0000
 9217OM     OM1 9217   2.804   4.966   0.917  0.0000  0.0000  0.0000
 9218OM     OM1 9218   2.662   5.000   1.132  0.0000  0.0000  0.0000
 9219OM     OM1 9219   9.350   3.259   0.903  0.0000  0.0000  0.0000
 9220OM     OM1 9220   3.649   8.571   0.224  0.0000  0.0000  0.0000
 9221OM     OM1 9221   3.599   8.823   0.278  0.0000  0.0000  0.0000
 9222OM     OM1 9222   4.155   6.472   0.718  0.0000  0.0000  0.0000
 9223OM     OM1 9223   7.730   1.806   0.479  0.0000  0.0000  0.0000
 9224OM     OM1 9224   7.854   1.825   0.707  0.0000  0.0000  0.0000
 9225OM     OM1 9225   1.437   5.966   0.370  0.0000  0.0000  0.0000
 9226OM     OM1 9226   5.968   0.952   9.231  0.0000  0.0000  0.0000
 9227OM     OM1 9227   5.887   1.053   9.463  0.0000  0.0000  0.0000
 9228OM     OM1 9228   1.179   1.722   0.072  0.0000  0.0000  0.0000
 9229OM     OM1 9229   2.044   7.150   1.206  0.0000  0.0000  0.0000
 9230OM     OM1 9230   1.804   7.248   1.162  0.0000  0.0000  0.0000
 9231OM     OM1 9231   1.900   7.068   1.010  0.0000  0.0000  0.0000
 9232OM     OM1 9232   3.853   4.790   0.639  0.0000  0.0000  0.0000
 9233OM     OM1 9233   3.653   4.929   0.538  0.0000  0.0000  0.0000
 9234OM     OM1 9234   2.253   7.809   0.897  0.0000  0.0000  0.0000
 9235OM     OM1 9235   2.420   7.990   0.786  0.0000  0.0000  0.0000
 9236OM     OM1 9236   1.644   2.083   0.073  0.0000  0.0000  0.0000
 9237OM     OM1 9237   1.887   2.164   9.580  0.0000  0.0000  0.0000
 9238OM     OM1 9238   7.671   0.945   0.781  0.0000  0.0000  0.0000
 9239OM     OM1 9239   7.701   0.943   0.524  0.0000  0.0000  0.0000
 9240OM     OM1 9240   9.389   2.883   8.659  0.0000  0.0000  0.0000
 9241OM     OM1 9241   9.146   2.972   8.620  0.0000  0.0000  0.0000
 9242OM     OM1 9242   9.270   3.011   8.853  0.0000  0.0000  0.0000
 9243OM     OM1 9243   2.639   1.379   9.443  0.0000  0.0000  0.0000
 9244OM     OM1 9244   2.713   1.142   9.367  0.0000  0.0000  0.0000
 9245OM     OM1 9245   5.852   5.208   0.863  0.0000  0.0000  0.0000
 9246OM     OM1 9246   5.838   5.470   0.910  0.0000  0.0000  0.0000
 9247OM     OM1 9247   5.676   5.313   1.022  0.0000  0.0000  0.0000
 9248OM     OM1 9248   9.074   8.610   8.657  0.0000  0.0000  0.0000
 9249OM     OM1 9249   8.851   8.728   8.627  0.0000  0.0000  0.0000
 9250OM     OM1 9250   8.854   8.474   8.593  0.0000  0.0000  0.0000
 9251OM     OM1 9251   5.779   0.727   0.431  0.0000  0.0000  0.0000
 9252OM     OM1 9252   5.980   0.844   0.309  0.0000  0.0000  0.0000
 9253OM     OM1 9253   3.152   6.773   0.368  0.0000  0.0000  0.0000
 9254OM     OM1 9254   7.561   8.166   8.358  0.0000  0.0000  0.0000
 9255OM     OM1 9255   4.907   1.374   9.243  0.0000  0.0000  0.0000
 9256OM     OM1 9256   4.733   1.186   9.256  0.0000  0.0000  0.0000
 9257OM     OM1 9257   8.744   6.770   8.962  0.0000  0.0000  0.0000
 9258OM     OM1 9258   8.622   6.559   8.890  0.0000  0.0000  0.0000
 9259OM     OM1 9259   8.872   3.430   9.297  0.0000  0.0000  0.0000
 9260OM     OM1 9260   9.026   3.608   9.165  0.0000  0.0000  0.0000
 9261OM     OM1 9261   1.093   0.292   8.680  0.0000  0.0000  0.0000
 9262OM     OM1 9262   1.230   0.446   8.829  0.0000  0.0000  0.0000
 9263OM     OM1 9263   2.563   7.525   8.297  0.0000  0.0000  0.0000
 9264OM     OM1 9264   2.811   7.453   8.329  0.0000  0.0000  0.0000
 9265OM     OM1 9265   8.940   8.963   8.608  0.0000  0.0000  0.0000
 9266OM     OM1 9266   5.139   1.643   0.309  0.0000  0.0000  0.0000
 9267OM     OM1 9267   5.274   1.842   0.209  0.0000  0.0000  0.0000
 9268OM     OM1 9268   5.162   1.856   0.457  0.0000  0.0000  0.0000
 9269OM     OM1 9269   5.548   7.333   1.397  0.0000  0.0000  0.0000
 9270OM     OM1 9270   5.360   0.205   1.181  0.0000  0.0000  0.0000
 9271OM     OM1 9271   5.611   0.154   1.187  0.0000  0.0000  0.0000
 9272OM     OM1 9272   3.852   5.290   8.997  0.0000  0.0000  0.0000
 9273OM     OM1 9273   3.621   5.177   9.077  0.0000  0.0000  0.0000
 9274OM     OM1 9274   3.850   5.111   9.174  0.0000  0.0000  0.0000
 9275OM     OM1 9275   5.608   5.850   8.976  0.0000  0.0000  0.0000
 9276OM     OM1 9276   0.515   6.509   1.252  0.0000  0.0000  0.0000
 9277OM     OM1 9277   5.761   3.534   0.716  0.0000  0.0000  0.0000
 9278OM     OM1 9278   5.935   0.076   9.098  0.0000  0.0000  0.0000
 9279OM     OM1 9279   8.329   2.731   9.178  0.0000  0.0000  0.0000
 9280OM     OM1 9280   8.118   2.884   9.200  0.0000  0.0000  0.0000
 9281OM     OM1 9281   8.205   2.794   8.965  0.0000  0.0000  0.0000
 9282OM     OM1 9282   6.883   6.860   9.094  0.0000  0.0000  0.0000
 9283OM     OM1 9283   1.399   1.582   8.522  0.0000  0.0000  0.0000
 9284OM     OM1 9284   1.202   1.312   8.248  0.0000  0.0000  0.0000
 9285OM     OM1 9285   7.293   3.632   0.760  0.0000  0.0000  0.0000
 9286OM     OM1 9286   9.452   0.205   8.382  0.0000  0.0000  0.0000
 9287OM     OM1 9287   3.776   0.866   8.639  0.0000  0.0000  0.0000
 9288OM     OM1 9288   3.969   1.003   8.518  0.0000  0.0000  0.0000
 9289OM     OM1 9289   0.925   3.486   8.599  0.0000  0.0000  0.0000
 9290OM     OM1 9290   1.144   3.494   8.738  0.0000  0.0000  0.0000
 9291OM     OM1 9291   0.936   3.553   8.863  0.0000  0.0000  0.0000
 9292OM     OM1 9292   1.796   5.351   9.165  0.0000  0.0000  0.0000
 9293OM     OM1 9293   1.786   5.104   9.240  0.0000  0.0000  0.0000
 9294OM     OM1 9294   7.326   7.312   8.583  0.0000  0.0000  0.0000
 9295OM     OM1 9295   7.558   9.349   9.052  0.0000  0.0000  0.0000
 9296OM     OM1 9296   7.368   9.529   9.062  0.0000  0.0000  0.0000
 9297OM     OM1 9297   2.025   0.105   8.746  0.0000  0.0000  0.0000
 9298OM     OM1 9298   1.880   9.529   8.622  0.0000  0.0000  0.0000
 9299OM     OM1 9299   1.861   9.548   8.877  0.0000  0.0000  0.0000
 9300OM     OM1 9300   2.547   8.825   9.395  0.0000  0.0000  0.0000
 9301OM     OM1 9301   2.721   8.829   9.602  0.0000  0.0000  0.0000
 9302OM     OM1 9302   5.527   7.337   9.451  0.0000  0.0000  0.0000
 9303OM     OM1 9303   5.603   7.093   9.379  0.0000  0.0000  0.0000
 9304OM     OM1 9304   7.869   2.931   9.193  0.0000  0.0000  0.0000
 9305OM     OM1 9305   6.707   4.056   1.128  0.0000  0.0000  0.0000
 9306OM     OM1 9306   6.638   3.866   0.969  0.0000  0.0000  0.0000
 9307OM     OM1 9307   6.810   3.811   1.155  0.0000  0.0000  0.0000
 9308OM     OM1 9308   3.139   9.088   0.537  0.0000  0.0000  0.0000
 9309OM     OM1 9309   7.814   3.366   0.400  0.0000  0.0000  0.0000
 9310OM     OM1 9310   0.657   5.000   0.331  0.0000  0.0000  0.0000
 9311OM     OM1 9311   0.572   5.246   0.390  0.0000  0.0000  0.0000
 9312OM     OM1 9312   0.999   4.868   8.750  0.0000  0.0000  0.0000
 9313OM     OM1 9313   0.847   4.731   8.576  0.0000  0.0000  0.0000
 9314OM     OM1 9314   0.808   4.982   8.606  0.0000  0.0000  0.0000
 9315OM     OM1 9315   5.002   0.487   0.177  0.0000  0.0000  0.0000
 9316OM     OM1 9316   4.807   0.528   0.348  0.0000  0.0000  0.0000
 9317OM     OM1 9317   1.605   1.020   9.345  0.0000  0.0000  0.0000
 9318OM     OM1 9318   0.808   2.795   9.463  0.0000  0.0000  0.0000
 9319OM     OM1 9319   0.894   2.795   0.104  0.0000  0.0000  0.0000
 9320OM     OM1 9320   0.716   2.965   0.029  0.0000  0.0000  0.0000
 9321OM     OM1 9321   0.262   4.027   0.927  0.0000  0.0000  0.0000
 9322OM     OM1 9322   0.489   3.950   0.817  0.0000  0.0000  0.0000
 9323OM     OM1 9323   9.126   6.100   8.857  0.0000  0.0000  0.0000
 9324OM     OM1 9324   2.161   7.133   8.899  0.0000  0.0000  0.0000
 9325OM     OM1 9325   1.956   6.981   8.960  0.0000  0.0000  0.0000
 9326OM     OM1 9326   6.784   8.357   0.373  0.0000  0.0000  0.0000
 9327OM     OM1 9327   6.719   8.516   0.572  0.0000  0.0000  0.0000
 9328OM     OM1 9328   7.684   1.609   8.794  0.0000  0.0000  0.0000
 9329OM     OM1 9329   7.271   1.600   8.495  0.0000  0.0000  0.0000
 9330OM     OM1 9330   3.047   2.850   0.587  0.0000  0.0000  0.0000
 9331OM     OM1 9331   2.690   0.874   9.387  0.0000  0.0000  0.0000
 9332OM     OM1 9332   2.780   0.987   9.176  0.0000  0.0000  0.0000
 9333OM     OM1 9333   2.523   1.010   9.236  0.0000  0.0000  0.0000
 9334OM     OM1 9334   0.409   4.537   0.285  0.0000  0.0000  0.0000
 9335OM     OM1 9335   0.606   4.587   0.133  0.0000  0.0000  0.0000
 9336OM     OM1 9336   8.289   4.698   8.907  0.0000  0.0000  0.0000
 9337OM     OM1 9337   6.206   2.387   9.124  0.0000  0.0000  0.0000
 9338OM     OM1 9338   6.152   2.358   8.866  0.0000  0.0000  0.0000
 9339OM     OM1 9339   9.174   0.380   0.688  0.0000  0.0000  0.0000
 9340OM     OM1 9340   2.166   2.195   0.701  0.0000  0.0000  0.0000
 9341OM     OM1 9341   1.961   2.322   0.797  0.0000  0.0000  0.0000
 9342OM     OM1 9342   7.273   1.563   9.367  0.0000  0.0000  0.0000
 9343OM     OM1 9343   7.409   1.773   9.448  0.0000  0.0000  0.0000
 9344OM     OM1 9344   0.099   9.536   1.059  0.0000  0.0000  0.0000
 9345OM     OM1 9345   0.023   0.033   0.835  0.0000  0.0000  0.0000
 9346OM     OM1 9346   2.926   4.081   0.124  0.0000  0.0000  0.0000
 9347OM     OM1 9347   7.399   4.455   9.079  0.0000  0.0000  0.0000
 9348OM     OM1 9348   7.456   7.753   1.453  0.0000  0.0000  0.0000
 9349OM     OM1 9349   2.431   8.861   9.153  0.0000  0.0000  0.0000
 9350OM     OM1 9350   3.028   7.073   9.078  0.0000  0.0000  0.0000
 9351OM     OM1 9351   2.531   6.935   9.276  0.0000  0.0000  0.0000
 9352OM     OM1 9352   2.701   7.071   9.407  0.0000  0.0000  0.0000
 9353OM     OM1 9353   1.784   5.773   8.415  0.0000  0.0000  0.0000
 9354OM     OM1 9354   1.784   7.930   9.187  0.0000  0.0000  0.0000
 9355OM     OM1 9355   5.982   4.036   9.050  0.0000  0.0000  0.0000
 9356OM     OM1 9356   6.068   4.234   8.906  0.0000  0.0000  0.0000
 9357OM     OM1 9357   9.583   0.884   0.369  0.0000  0.0000  0.0000
 9358OM     OM1 9358   8.019   1.140   0.680  0.0000  0.0000  0.0000
 9359OM     OM1 9359   8.268   1.313   0.937  0.0000  0.0000  0.0000
 9360OM     OM1 9360   8.141   1.093   0.894  0.0000  0.0000  0.0000
 9361OM     OM1 9361   3.099   8.185   0.485  0.0000  0.0000  0.0000
 9362OM     OM1 9362   9.044   4.221   1.035  0.0000  0.0000  0.0000
 9363OM     OM1 9363   4.629   5.026   9.262  0.0000  0.0000  0.0000
 9364OM     OM1 9364   4.863   4.972   9.171  0.0000  0.0000  0.0000
 9365OM     OM1 9365   3.184   5.127   0.199  0.0000  0.0000  0.0000
 9366OM     OM1 9366   2.968   4.987   0.240  0.0000  0.0000  0.0000
 9367OM     OM1 9367   3.198   4.893   0.308  0.0000  0.0000  0.0000
 9368OM     OM1 9368   3.125   5.929   8.773  0.0000  0.0000  0.0000
 9369OM     OM1 9369   3.135   5.737   8.942  0.0000  0.0000  0.0000
 9370OM     OM1 9370   2.731   0.469   0.576  0.0000  0.0000  0.0000
 9371OM     OM1 9371   6.658   0.828   0.769  0.0000  0.0000  0.0000
 9372OM     OM1 9372   6.656   0.624   0.613  0.0000  0.0000  0.0000
 9373OM     OM1 9373   2.199   5.382   0.674  0.0000  0.0000  0.0000
 9374OM     OM1 9374   2.187   9.510   0.993  0.0000  0.0000  0.0000
 9375OM     OM1 9375   1.747   0.631   8.316  0.0000  0.0000  0.0000
 9376OM     OM1 9376   9.310   3.989   0.910  0.0000  0.0000  0.0000
 9377OM     OM1 9377   9.251   3.865   0.687  0.0000  0.0000  0.0000
 9378OM     OM1 9378   1.567   2.949   0.147  0.0000  0.0000  0.0000
 9379OM     OM1 9379   1.370   2.830   0.281  0.0000  0.0000  0.0000
 9380OM     OM1 9380   1.213   2.087   9.392  0.0000  0.0000  0.0000
 9381OM     OM1 9381   1.384   1.903   9.356  0.0000  0.0000  0.0000
 9382OM     OM1 9382   1.534   5.451   0.216  0.0000  0.0000  0.0000
 9383OM     OM1 9383   1.603   5.340   9.595  0.0000  0.0000  0.0000
 9384OM     OM1 9384   1.863   7.936   8.681  0.0000  0.0000  0.0000
 9385OM     OM1 9385   8.273   2.894   8.731  0.0000  0.0000  0.0000
 9386OM     OM1 9386   8.293   3.116   8.586  0.0000  0.0000  0.0000
 9387OM     OM1 9387   8.429   3.078   8.807  0.0000  0.0000  0.0000
 9388OM     OM1 9388   7.595   5.908   1.123  0.0000  0.0000  0.0000
 9389OM     OM1 9389   4.716   0.696   8.961  0.0000  0.0000  0.0000
 9390OM     OM1 9390   4.823   0.711   9.200  0.0000  0.0000  0.0000
 9391OM     OM1 9391   3.266   7.349   0.322  0.0000  0.0000  0.0000
 9392OM     OM1 9392   1.565   8.647   0.629  0.0000  0.0000  0.0000
 9393OM     OM1 9393   5.750   4.062   8.624  0.0000  0.0000  0.0000
 9394OM     OM1 9394   5.525   4.157   8.530  0.0000  0.0000  0.0000
 9395OM     OM1 9395   5.602   3.945   8.430  0.0000  0.0000  0.0000
 9396OM     OM1 9396   6.740   6.219   9.385  0.0000  0.0000  0.0000
 9397OM     OM1 9397   8.559   2.476   9.016  0.0000  0.0000  0.0000
 9398OM     OM1 9398   8.508   2.336   9.233  0.0000  0.0000  0.0000
 9399OM     OM1 9399   8.318   2.367   9.032  0.0000  0.0000  0.0000
 9400OM     OM1 9400   4.592   0.717   9.326  0.0000  0.0000  0.0000
 9401OM     OM1 9401   7.831   1.915   0.268  0.0000  0.0000  0.0000
 9402OM     OM1 9402   1.032   8.131   1.236  0.0000  0.0000  0.0000
 9403OM     OM1 9403   0.784   8.181   1.188  0.0000  0.0000  0.0000
 9404OM     OM1 9404   7.629   0.013   0.731  0.0000  0.0000  0.0000
 9405OM     OM1 9405   3.864   9.211   1.366  0.0000  0.0000  0.0000
 9406OM     OM1 9406   5.394   0.165   0.248  0.0000  0.0000  0.0000
 9407OM     OM1 9407   5.235   1.873   0.791  0.0000  0.0000  0.0000
 9408OM     OM1 9408   5.246   2.057   0.621  0.0000  0.0000  0.0000
 9409OM     OM1 9409   8.715   1.194   0.603  0.0000  0.0000  0.0000
 9410OM     OM1 9410   7.272   6.227   0.451  0.0000  0.0000  0.0000
 9411OM     OM1 9411   7.316   6.015   0.596  0.0000  0.0000  0.0000
 9412OM     OM1 9412   6.928   7.049   8.931  0.0000  0.0000  0.0000
 9413OM     OM1 9413   6.690   7.127   8.881  0.0000  0.0000  0.0000
 9414OM     OM1 9414   5.270   9.477   8.932  0.0000  0.0000  0.0000
 9415OM     OM1 9415   9.233   8.125   8.676  0.0000  0.0000  0.0000
 9416OM     OM1 9416   9.193   8.391   8.682  0.0000  0.0000  0.0000
 9417OM     OM1 9417   9.152   8.255   8.887  0.0000  0.0000  0.0000
 9418OM     OM1 9418   8.989   8.207   8.701  0.0000  0.0000  0.0000
 9419OM     OM1 9419   6.135   6.670   9.043  0.0000  0.0000  0.0000
 9420OM     OM1 9420   5.082   5.930   9.127  0.0000  0.0000  0.0000
 9421OM     OM1 9421   5.262   5.812   9.291  0.0000  0.0000  0.0000
 9422OM     OM1 9422   5.007   5.755   9.303  0.0000  0.0000  0.0000
 9423OM     OM1 9423   8.807   1.516   8.436  0.0000  0.0000  0.0000
 9424OM     OM1 9424   8.977   1.327   8.368  0.0000  0.0000  0.0000
 9425OM     OM1 9425   9.014   1.465   8.594  0.0000  0.0000  0.0000
 9426OM     OM1 9426   1.956   9.413   0.084  0.0000  0.0000  0.0000
 9427OM     OM1 9427   6.464   5.843   0.371  0.0000  0.0000  0.0000
 9428OM     OM1 9428   2.550   0.655   0.554  0.0000  0.0000  0.0000
 9429OM     OM1 9429   2.519   0.903   0.595  0.0000  0.0000  0.0000
 9430OM     OM1 9430   1.608   9.367   1.234  0.0000  0.0000  0.0000
 9431OM     OM1 9431   6.251   7.303   8.901  0.0000  0.0000  0.0000
 9432OM     OM1 9432   2.635   5.723   9.459  0.0000  0.0000  0.0000
 9433OM     OM1 9433   2.714   5.689   0.094  0.0000  0.0000  0.0000
 9434OM     OM1 9434   2.171   3.231   0.010  0.0000  0.0000  0.0000
 9435OM     OM1 9435   8.538   6.768   9.130  0.0000  0.0000  0.0000
 9436OM     OM1 9436   8.304   6.660   9.212  0.0000  0.0000  0.0000
 9437OM     OM1 9437   6.108   0.140   0.359  0.0000  0.0000  0.0000
 9438OM     OM1 9438   9.440   4.777   0.119  0.0000  0.0000  0.0000
 9439OM     OM1 9439   9.538   5.002   0.196  0.0000  0.0000  0.0000
 9440OM     OM1 9440   0.554   6.608   0.004  0.0000  0.0000  0.0000
 9441OM     OM1 9441   8.920   8.326   8.392  0.0000  0.0000  0.0000
 9442OM     OM1 9442   3.958   5.430   0.271  0.0000  0.0000  0.0000
 9443OM     OM1 9443   3.844   5.365   0.501  0.0000  0.0000  0.0000
 9444OM     OM1 9444   8.899   1.230   1.101  0.0000  0.0000  0.0000
 9445OM     OM1 9445   5.715   1.011   0.075  0.0000  0.0000  0.0000
 9446OM     OM1 9446   5.967   0.971   0.090  0.0000  0.0000  0.0000
 9447OM     OM1 9447   5.800   0.820   9.546  0.0000  0.0000  0.0000
 9448OM     OM1 9448   3.225   7.573   8.490  0.0000  0.0000  0.0000
 9449OM     OM1 9449   2.966   7.594   8.499  0.0000  0.0000  0.0000
 9450OM     OM1 9450   3.132   7.759   8.641  0.0000  0.0000  0.0000
 9451OM     OM1 9451   7.629   6.383   9.326  0.0000  0.0000  0.0000
 9452OM     OM1 9452   7.723   6.578   0.098  0.0000  0.0000  0.0000
 9453OM     OM1 9453   3.641   1.249   8.955  0.0000  0.0000  0.0000
 9454OM     OM1 9454   3.753   1.263   9.200  0.0000  0.0000  0.0000
 9455OM     OM1 9455   3.979   0.717   9.363  0.0000  0.0000  0.0000
 9456OM     OM1 9456   4.870   9.134   8.315  0.0000  0.0000  0.0000
 9457OM     OM1 9457   7.133   6.924   9.049  0.0000  0.0000  0.0000
 9458OM     OM1 9458   6.941   1.950   8.324  0.0000  0.0000  0.0000
 9459OM     OM1 9459   6.902   6.490   0.955  0.0000  0.0000  0.0000
 9460OM     OM1 9460   7.110   6.570   1.105  0.0000  0.0000  0.0000
 9461OM     OM1 9461   5.851   3.034   0.173  0.0000  0.0000  0.0000
 9462OM     OM1 9462   5.735   2.804   0.177  0.0000  0.0000  0.0000
 9463OM     OM1 9463   5.887   2.875   0.378  0.0000  0.0000  0.0000
 9464OM     OM1 9464   6.313   4.637   8.362  0.0000  0.0000  0.0000
 9465OM     OM1 9465   2.823   4.784   1.093  0.0000  0.0000  0.0000
 9466OM     OM1 9466   1.474   3.905   0.822  0.0000  0.0000  0.0000
 9467OM     OM1 9467   8.864   7.299   0.778  0.0000  0.0000  0.0000
 9468OM     OM1 9468   8.777   7.191   0.550  0.0000  0.0000  0.0000
 9469OM     OM1 9469   4.479   0.537   0.945  0.0000  0.0000  0.0000
 9470OM     OM1 9470   4.655   0.686   0.834  0.0000  0.0000  0.0000
 9471OM     OM1 9471   4.713   0.554   1.062  0.0000  0.0000  0.0000
 9472OM     OM1 9472   8.820   2.471   8.981  0.0000  0.0000  0.0000
 9473OM     OM1 9473   4.975   5.197   9.107  0.0000  0.0000  0.0000
 9474OM     OM1 9474   4.956   5.133   9.350  0.0000  0.0000  0.0000
 9475OM     OM1 9475   4.732   8.502   8.909  0.0000  0.0000  0.0000
 9476OM     OM1 9476   4.581   8.587   9.104  0.0000  0.0000  0.0000
 9477OM     OM1 9477   4.684   8.351   9.110  0.0000  0.0000  0.0000
 9478OM     OM1 9478   2.875   1.884   1.060  0.0000  0.0000  0.0000
 9479OM     OM1 9479   7.012   1.677   1.074  0.0000  0.0000  0.0000
 9480OM     OM1 9480   6.866   1.575   0.892  0.0000  0.0000  0.0000
 9481OM     OM1 9481   3.695   8.679   1.111  0.0000  0.0000  0.0000
 9482OM     OM1 9482   7.129   2.679   8.640  0.0000  0.0000  0.0000
 9483OM     OM1 9483   3.104   3.425   8.836  0.0000  0.0000  0.0000
 9484OM     OM1 9484   1.674   5.118   9.470  0.0000  0.0000  0.0000
 9485OM     OM1 9485   1.355   5.420   0.017  0.0000  0.0000  0.0000
 9486OM     OM1 9486   5.253   0.057   9.212  0.0000  0.0000  0.0000
 9487OM     OM1 9487   4.968   9.463   9.405  0.0000  0.0000  0.0000
 9488OM     OM1 9488   9.443   6.471   0.663  0.0000  0.0000  0.0000
 9489OM     OM1 9489   9.232   6.521   0.523  0.0000  0.0000  0.0000
 9490OM     OM1 9490   7.698   1.216   0.071  0.0000  0.0000  0.0000
 9491OM     OM1 9491   7.868   1.159   0.243  0.0000  0.0000  0.0000
 9492OM     OM1 9492   5.326   7.226   1.320  0.0000  0.0000  0.0000
 9493OM     OM1 9493   4.185   7.078   0.913  0.0000  0.0000  0.0000
 9494OM     OM1 9494   7.733   6.437   0.324  0.0000  0.0000  0.0000
 9495OM     OM1 9495   0.426   0.542   9.167  0.0000  0.0000  0.0000
 9496OM     OM1 9496   7.996   4.965   9.318  0.0000  0.0000  0.0000
 9497OM     OM1 9497   0.217   6.021   9.358  0.0000  0.0000  0.0000
 9498OM     OM1 9498   0.119   6.257   9.347  0.0000  0.0000  0.0000
 9499OM     OM1 9499   4.094   1.615   1.116  0.0000  0.0000  0.0000
 9500OM     OM1 9500   5.198   4.498   1.262  0.0000  0.0000  0.0000
 9501OM     OM1 9501   4.696   0.932   9.229  0.0000  0.0000  0.0000
 9502OM     OM1 9502   4.509   1.104   9.157  0.0000  0.0000  0.0000
 9503OM     OM1 9503   7.660   7.257   9.124  0.0000  0.0000  0.0000
 9504OM     OM1 9504   8.992   4.729   8.487  0.0000  0.0000  0.0000
 9505OM     OM1 9505   1.342   7.379   1.260  0.0000  0.0000  0.0000
 9506OM     OM1 9506   1.165   7.546   1.166  0.0000  0.0000  0.0000
 9507OM     OM1 9507   0.968   0.241   0.703  0.0000  0.0000  0.0000
 9508OM     OM1 9508   0.882   0.010   0.592  0.0000  0.0000  0.0000
 9509OM     OM1 9509   1.422   4.854   1.018  0.0000  0.0000  0.0000
 9510OM     OM1 9510   4.563   0.121   8.462  0.0000  0.0000  0.0000
 9511OM     OM1 9511   4.872   0.445   8.596  0.0000  0.0000  0.0000
 9512OM     OM1 9512   4.687   0.549   8.744  0.0000  0.0000  0.0000
 9513OM     OM1 9513   1.726   4.686   9.227  0.0000  0.0000  0.0000
 9514OM     OM1 9514   1.577   4.697   9.447  0.0000  0.0000  0.0000
 9515OM     OM1 9515   1.478   4.712   9.198  0.0000  0.0000  0.0000
 9516OM     OM1 9516   1.619   4.911   9.308  0.0000  0.0000  0.0000
 9517OM     OM1 9517   3.942   7.152   1.017  0.0000  0.0000  0.0000
 9518OM     OM1 9518   6.954   2.288   9.041  0.0000  0.0000  0.0000
 9519OM     OM1 9519   0.877   5.010   0.973  0.0000  0.0000  0.0000
 9520OM     OM1 9520   5.101   1.461   8.425  0.0000  0.0000  0.0000
 9521OM     OM1 9521   3.852   1.412   0.711  0.0000  0.0000  0.0000
 9522OM     OM1 9522   8.540   2.881   0.225  0.0000  0.0000  0.0000
 9523OM     OM1 9523   2.785   1.729   9.465  0.0000  0.0000  0.0000
 9524OM     OM1 9524   3.017   1.852   9.435  0.0000  0.0000  0.0000
 9525OM     OM1 9525   8.659   2.803   0.714  0.0000  0.0000  0.0000
 9526OM     OM1 9526   7.091   1.881   0.921  0.0000  0.0000  0.0000
 9527OM     OM1 9527   8.767   6.676   1.007  0.0000  0.0000  0.0000
 9528OM     OM1 9528   8.720   6.554   0.784  0.0000  0.0000  0.0000
 9529OM     OM1 9529   1.464   2.717   0.633  0.0000  0.0000  0.0000
 9530OM     OM1 9530   1.246   2.798   0.504  0.0000  0.0000  0.0000
 9531OM     OM1 9531   1.247   2.706   0.760  0.0000  0.0000  0.0000
 9532OM     OM1 9532   3.119   3.912   0.097  0.0000  0.0000  0.0000
 9533OM     OM1 9533   2.949   3.945   9.511  0.0000  0.0000  0.0000
 9534OM     OM1 9534   2.922   4.183   9.382  0.0000  0.0000  0.0000
 9535OM     OM1 9535   1.880   9.160   0.037  0.0000  0.0000  0.0000
 9536OM     OM1 9536   7.635   8.057   0.128  0.0000  0.0000  0.0000
 9537OM     OM1 9537   7.703   7.861   9.586  0.0000  0.0000  0.0000
 9538OM     OM1 9538   6.373   9.390   8.912  0.0000  0.0000  0.0000
 9539OM     OM1 9539   6.408   0.025   8.836  0.0000  0.0000  0.0000
 9540OM     OM1 9540   0.770   4.842   0.133  0.0000  0.0000  0.0000
 9541OM     OM1 9541   6.549   9.307   1.156  0.0000  0.0000  0.0000
 9542OM     OM1 9542   6.326   9.176   1.181  0.0000  0.0000  0.0000
 9543OM     OM1 9543   6.465   9.152   0.961  0.0000  0.0000  0.0000
 9544OM     OM1 9544   6.348   9.382   1.014  0.0000  0.0000  0.0000
 9545OM     OM1 9545   8.065   1.957   9.295  0.0000  0.0000  0.0000
 9546OM     OM1 9546   1.901   5.813   0.232  0.0000  0.0000  0.0000
 9547OM     OM1 9547   6.795   9.080   8.521  0.0000  0.0000  0.0000
 9548OM     OM1 9548   6.988   8.964   8.390  0.0000  0.0000  0.0000
 9549OM     OM1 9549   1.938   8.944   8.241  0.0000  0.0000  0.0000
 9550OM     OM1 9550   4.793   2.869   0.869  0.0000  0.0000  0.0000
 9551OM     OM1 9551   4.867   2.614   0.899  0.0000  0.0000  0.0000
 9552OM     OM1 9552   0.676   1.337   9.041  0.0000  0.0000  0.0000
 9553OM     OM1 9553   0.792   1.552   8.938  0.0000  0.0000  0.0000
 9554OM     OM1 9554   0.792   1.337   8.801  0.0000  0.0000  0.0000
 9555OM     OM1 9555   5.990   7.162   0.612  0.0000  0.0000  0.0000
 9556OM     OM1 9556   6.558   6.351   8.503  0.0000  0.0000  0.0000
 9557OM     OM1 9557   6.635   6.102   8.511  0.0000  0.0000  0.0000
 9558OM     OM1 9558   7.788   3.801   1.438  0.0000  0.0000  0.0000
 9559OM     OM1 9559   3.427   6.363   9.141  0.0000  0.0000  0.0000
 9560OM     OM1 9560   3.693   6.364   9.189  0.0000  0.0000  0.0000
 9561OM     OM1 9561   8.266   6.908   8.318  0.0000  0.0000  0.0000
 9562OM     OM1 9562   8.262   6.644   8.379  0.0000  0.0000  0.0000
 9563OM     OM1 9563   2.152   7.360   1.308  0.0000  0.0000  0.0000
 9564OM     OM1 9564   3.080   8.502   8.722  0.0000  0.0000  0.0000
 9565OM     OM1 9565   7.221   4.550   0.912  0.0000  0.0000  0.0000
 9566OM     OM1 9566   7.414   4.724   0.936  0.0000  0.0000  0.0000
 9567OM     OM1 9567   2.456   5.660   0.033  0.0000  0.0000  0.0000
 9568OM     OM1 9568   5.999   2.883   8.300  0.0000  0.0000  0.0000
 9569OM     OM1 9569   9.356   5.977   8.874  0.0000  0.0000  0.0000
 9570OM     OM1 9570   9.544   5.820   8.783  0.0000  0.0000  0.0000
 9571OM     OM1 9571   1.851   9.030   0.259  0.0000  0.0000  0.0000
 9572OM     OM1 9572   1.654   4.441   9.240  0.0000  0.0000  0.0000
 9573OM     OM1 9573   3.891   8.676   8.556  0.0000  0.0000  0.0000
 9574OM     OM1 9574   4.125   1.625   8.459  0.0000  0.0000  0.0000
 9575OM     OM1 9575   4.279   1.408   8.503  0.0000  0.0000  0.0000
 9576OM     OM1 9576   2.735   2.837   8.524  0.0000  0.0000  0.0000
 9577OM     OM1 9577   2.786   2.698   8.740  0.0000  0.0000  0.0000
 9578OM     OM1 9578   1.586   4.177   8.456  0.0000  0.0000  0.0000
 9579OM     OM1 9579   4.331   9.292   9.038  0.0000  0.0000  0.0000
 9580OM     OM1 9580   7.867   8.859   0.028  0.0000  0.0000  0.0000
 9581OM     OM1 9581   6.305   3.530   1.191  0.0000  0.0000  0.0000
 9582OM     OM1 9582   6.115   3.611   1.040  0.0000  0.0000  0.0000
 9583OM     OM1 9583   6.111   3.665   1.294  0.0000  0.0000  0.0000
 9584OM     OM1 9584   7.075   3.426   8.797  0.0000  0.0000  0.0000
 9585OM     OM1 9585   7.045   3.632   8.617  0.0000  0.0000  0.0000
 9586OM     OM1 9586   4.151   7.231   0.596  0.0000  0.0000  0.0000
 9587OM     OM1 9587   7.811   7.572   0.916  0.0000  0.0000  0.0000
 9588OM     OM1 9588   0.629   7.999   0.731  0.0000  0.0000  0.0000
 9589OM     OM1 9589   0.880   7.989   0.807  0.0000  0.0000  0.0000
 9590OM     OM1 9590   0.801   8.126   0.590  0.0000  0.0000  0.0000
 9591OM     OM1 9591   6.233   9.541   0.592  0.0000  0.0000  0.0000
 9592OM     OM1 9592   6.179   9.468   0.835  0.0000  0.0000  0.0000
 9593OM     OM1 9593   6.123   3.841   0.916  0.0000  0.0000  0.0000
 9594OM     OM1 9594   6.388   3.864   0.909  0.0000  0.0000  0.0000
 9595OM     OM1 9595   3.829   9.562   0.659  0.0000  0.0000  0.0000
 9596OM     OM1 9596   3.673   0.166   0.624  0.0000  0.0000  0.0000
 9597OM     OM1 9597   3.719   9.502   0.874  0.0000  0.0000  0.0000
 9598OM     OM1 9598   9.064   2.045   8.549  0.0000  0.0000  0.0000
 9599OM     OM1 9599   8.825   2.148   8.603  0.0000  0.0000  0.0000
 9600OM     OM1 9600   7.669   5.063   0.729  0.0000  0.0000  0.0000
 9601OM     OM1 9601   7.782   3.047   8.477  0.0000  0.0000  0.0000
 9602OM     OM1 9602   7.972   3.090   8.309  0.0000  0.0000  0.0000
 9603OM     OM1 9603   9.515   1.492   8.469  0.0000  0.0000  0.0000
 9604OM     OM1 9604   6.340   0.026   9.185  0.0000  0.0000  0.0000
 9605OM     OM1 9605   6.509   9.438   9.128  0.0000  0.0000  0.0000
 9606OM     OM1 9606   9.334   0.439   8.367  0.0000  0.0000  0.0000
 9607OM     OM1 9607   9.539   7.567   0.726  0.0000  0.0000  0.0000
 9608OM     OM1 9608   9.284   7.600   0.668  0.0000  0.0000  0.0000
 9609OM     OM1 9609   5.105   8.036   9.492  0.0000  0.0000  0.0000
 9610OM     OM1 9610   5.208   7.933   9.274  0.0000  0.0000  0.0000
 9611OM     OM1 9611   5.077   8.157   9.270  0.0000  0.0000  0.0000
 9612OM     OM1 9612   4.599   1.366   0.301  0.0000  0.0000  0.0000
 9613OM     OM1 9613   4.646   1.562   0.469  0.0000  0.0000  0.0000
 9614OM     OM1 9614   7.622   3.837   8.623  0.0000  0.0000  0.0000
 9615OM     OM1 9615   7.604   4.093   8.637  0.0000  0.0000  0.0000
 9616OM     OM1 9616   0.452   2.799   8.684  0.0000  0.0000  0.0000
 9617OM     OM1 9617   0.672   2.827   8.806  0.0000  0.0000  0.0000
 9618OM     OM1 9618   9.017   3.081   0.623  0.0000  0.0000  0.0000
 9619OM     OM1 9619   6.437   5.135   9.218  0.0000  0.0000  0.0000
 9620OM     OM1 9620   3.774   4.112   9.056  0.0000  0.0000  0.0000
 9621OM     OM1 9621   6.544   9.067   8.505  0.0000  0.0000  0.0000
 9622OM     OM1 9622   8.075   0.156   8.224  0.0000  0.0000  0.0000
 9623OM     OM1 9623   0.678   8.721   8.557  0.0000  0.0000  0.0000
 9624OM     OM1 9624   0.792   8.493   8.637  0.0000  0.0000  0.0000
 9625OM     OM1 9625   0.942   8.685   8.586  0.0000  0.0000  0.0000
 9626OM     OM1 9626   5.868   5.234   0.362  0.0000  0.0000  0.0000
 9627OM     OM1 9627   6.097   5.207   0.249  0.0000  0.0000  0.0000
 9628OM     OM1 9628   5.998   5.015   0.409  0.0000  0.0000  0.0000
 9629OM     OM1 9629   6.096   5.232   0.507  0.0000  0.0000  0.0000
 9630OM     OM1 9630   8.393   4.508   0.894  0.0000  0.0000  0.0000
 9631OM     OM1 9631   8.447   4.698   1.077  0.0000  0.0000  0.0000
 9632OM     OM1 9632   8.367   6.556   8.832  0.0000  0.0000  0.0000
 9633OM     OM1 9633   8.486   6.327   8.884  0.0000  0.0000  0.0000
 9634OM     OM1 9634   8.216   6.707   8.980  0.0000  0.0000  0.0000
 9635OM     OM1 9635   1.828   3.108   0.889  0.0000  0.0000  0.0000
 9636OM     OM1 9636   1.569   3.111   0.920  0.0000  0.0000  0.0000
 9637OM     OM1 9637   3.653   1.350   9.428  0.0000  0.0000  0.0000
 9638OM     OM1 9638   2.660   7.980   0.882  0.0000  0.0000  0.0000
 9639OM     OM1 9639   2.533   8.199   0.897  0.0000  0.0000  0.0000
 9640OM     OM1 9640   0.138   4.047   8.957  0.0000  0.0000  0.0000
 9641OM     OM1 9641   7.168   7.547   0.305  0.0000  0.0000  0.0000
 9642OM     OM1 9642   4.127   1.202   8.455  0.0000  0.0000  0.0000
 9643OM     OM1 9643   3.931   1.128   8.300  0.0000  0.0000  0.0000
 9644OM     OM1 9644   3.991   5.001   1.326  0.0000  0.0000  0.0000
 9645OM     OM1 9645   3.904   5.246   1.303  0.0000  0.0000  0.0000
 9646OM     OM1 9646   4.928   4.448   8.854  0.0000  0.0000  0.0000
 9647OM     OM1 9647   5.010   4.693   8.820  0.0000  0.0000  0.0000
 9648OM     OM1 9648   8.198   0.858   1.245  0.0000  0.0000  0.0000
 9649OM     OM1 9649   5.154   4.211   0.872  0.0000  0.0000  0.0000
 9650OM     OM1 9650   5.233   4.405   1.020  0.0000  0.0000  0.0000
 9651OM     OM1 9651   5.414   4.239   0.917  0.0000  0.0000  0.0000
 9652OM     OM1 9652   2.969   1.076   1.153  0.0000  0.0000  0.0000
 9653OM     OM1 9653   5.583   0.276   8.335  0.0000  0.0000  0.0000
 9654OM     OM1 9654   8.668   0.455   1.126  0.0000  0.0000  0.0000
 9655OM     OM1 9655   8.142   9.375   0.824  0.0000  0.0000  0.0000
 9656OM     OM1 9656   8.344   9.361   0.974  0.0000  0.0000  0.0000
 9657OM     OM1 9657   7.592   0.434   9.301  0.0000  0.0000  0.0000
 9658OM     OM1 9658   3.998   1.561   0.881  0.0000  0.0000  0.0000
 9659OM     OM1 9659   4.061   1.542   0.636  0.0000  0.0000  0.0000
 9660OM     OM1 9660   3.853   1.676   0.689  0.0000  0.0000  0.0000
 9661OM     OM1 9661   4.256   4.192   8.570  0.0000  0.0000  0.0000
 9662OM     OM1 9662   4.012   4.125   8.588  0.0000  0.0000  0.0000
 9663OM     OM1 9663   4.160   4.025   8.394  0.0000  0.0000  0.0000
 9664OM     OM1 9664   4.872   5.377   8.945  0.0000  0.0000  0.0000
 9665OM     OM1 9665   3.236   1.988   8.560  0.0000  0.0000  0.0000
 9666OM     OM1 9666   3.049   2.101   8.703  0.0000  0.0000  0.0000
 9667OM     OM1 9667   4.251   6.397   8.487  0.0000  0.0000  0.0000
 9668OM     OM1 9668   4.348   6.611   8.365  0.0000  0.0000  0.0000
 9669OM     OM1 9669   4.392   6.571   8.616  0.0000  0.0000  0.0000
 9670OM     OM1 9670   4.515   6.422   8.451  0.0000  0.0000  0.0000
 9671OM     OM1 9671   6.601   4.183   9.131  0.0000  0.0000  0.0000
 9672OM     OM1 9672   8.585   5.355   8.229  0.0000  0.0000  0.0000
 9673OM     OM1 9673   0.618   0.047   1.195  0.0000  0.0000  0.0000
 9674OM     OM1 9674   6.235   4.754   8.583  0.0000  0.0000  0.0000
 9675OM     OM1 9675   7.571   1.899   0.284  0.0000  0.0000  0.0000
 9676OM     OM1 9676   1.296   8.077   9.499  0.0000  0.0000  0.0000
 9677OM     OM1 9677   0.190   3.064   1.014  0.0000  0.0000  0.0000
 9678OM     OM1 9678   0.326   3.046   1.232  0.0000  0.0000  0.0000
 9679OM     OM1 9679   0.130   2.886   1.200  0.0000  0.0000  0.0000
 9680OM     OM1 9680   9.438   4.761   9.234  0.0000  0.0000  0.0000
 9681OM     OM1 9681   9.407   4.694   9.481  0.0000  0.0000  0.0000
 9682OM     OM1 9682   9.195   4.761   9.339  0.0000  0.0000  0.0000
 9683OM     OM1 9683   6.727   1.950   8.477  0.0000  0.0000  0.0000
 9684OM     OM1 9684   2.614   4.204   9.031  0.0000  0.0000  0.0000
 9685OM     OM1 9685   3.781   6.252   8.980  0.0000  0.0000  0.0000
 9686OM     OM1 9686   3.560   6.278   8.814  0.0000  0.0000  0.0000
 9687OM     OM1 9687   9.147   1.000   0.168  0.0000  0.0000  0.0000
 9688OM     OM1 9688   9.109   0.886   0.388  0.0000  0.0000  0.0000
 9689OM     OM1 9689   5.457   6.176   9.258  0.0000  0.0000  0.0000
 9690OM     OM1 9690   9.395   6.580   8.231  0.0000  0.0000  0.0000
 9691OM     OM1 9691   6.764   6.445   8.378  0.0000  0.0000  0.0000
 9692OM     OM1 9692   8.716   0.354   0.351  0.0000  0.0000  0.0000
 9693OM     OM1 9693   1.712   9.393   9.043  0.0000  0.0000  0.0000
 9694OM     OM1 9694   5.376   5.630   0.254  0.0000  0.0000  0.0000
 9695OM     OM1 9695   5.143   5.559   0.348  0.0000  0.0000  0.0000
 9696OM     OM1 9696   2.045   0.299   8.919  0.0000  0.0000  0.0000
 9697OM     OM1 9697   2.153   0.406   9.135  0.0000  0.0000  0.0000
 9698OM     OM1 9698   3.956   4.352   8.715  0.0000  0.0000  0.0000
 9699OM     OM1 9699   5.509   3.761   1.091  0.0000  0.0000  0.0000
 9700OM     OM1 9700   5.505   4.017   1.030  0.0000  0.0000  0.0000
 9701OM     OM1 9701   5.730   3.924   1.102  0.0000  0.0000  0.0000
 9702OM     OM1 9702   9.280   3.614   9.185  0.0000  0.0000  0.0000
 9703OM     OM1 9703   9.458   3.785   9.237  0.0000  0.0000  0.0000
 9704OM     OM1 9704   9.351   3.690   9.440  0.0000  0.0000  0.0000
 9705OM     OM1 9705   4.018   7.156   9.242  0.0000  0.0000  0.0000
 9706OM     OM1 9706   4.260   7.060   9.242  0.0000  0.0000  0.0000
 9707OM     OM1 9707   3.922   7.202   9.479  0.0000  0.0000  0.0000
 9708OM     OM1 9708   3.071   6.653   8.448  0.0000  0.0000  0.0000
 9709OM     OM1 9709   7.013   2.897   0.089  0.0000  0.0000  0.0000
 9710OM     OM1 9710   7.695   6.448   0.574  0.0000  0.0000  0.0000
 9711OM     OM1 9711   7.513   6.328   0.419  0.0000  0.0000  0.0000
 9712OM     OM1 9712   8.495   0.819   8.587  0.0000  0.0000  0.0000
 9713OM     OM1 9713   8.245   0.828   8.509  0.0000  0.0000  0.0000
 9714OM     OM1 9714   1.177   2.290   8.577  0.0000  0.0000  0.0000
 9715OM     OM1 9715   1.036   2.499   8.657  0.0000  0.0000  0.0000
 9716OM     OM1 9716   2.732   0.973   0.461  0.0000  0.0000  0.0000
 9717OM     OM1 9717   2.935   1.095   0.333  0.0000  0.0000  0.0000
 9718OM     OM1 9718   6.301   0.315   0.315  0.0000  0.0000  0.0000
 9719OM     OM1 9719   1.300   5.255   9.187  0.0000  0.0000  0.0000
 9720OM     OM1 9720   1.102   5.417   9.237  0.0000  0.0000  0.0000
 9721OM     OM1 9721   1.060   5.180   9.142  0.0000  0.0000  0.0000
 9722OM     OM1 9722   8.500   8.075   0.628  0.0000  0.0000  0.0000
 9723OM     OM1 9723   8.708   8.129   0.784  0.0000  0.0000  0.0000
 9724OM     OM1 9724   9.271   0.268   8.554  0.0000  0.0000  0.0000
 9725OM     OM1 9725   6.347   0.067   0.387  0.0000  0.0000  0.0000
 9726OM     OM1 9726   8.651   6.998   9.062  0.0000  0.0000  0.0000
 9727OM     OM1 9727   0.263   7.313   1.237  0.0000  0.0000  0.0000
 9728OM     OM1 9728   7.921   6.590   0.586  0.0000  0.0000  0.0000
 9729OM     OM1 9729   3.623   0.295   0.240  0.0000  0.0000  0.0000
 9730OM     OM1 9730   3.515   0.301   0.476  0.0000  0.0000  0.0000
 9731OM     OM1 9731   2.737   1.949   9.087  0.0000  0.0000  0.0000
 9732OM     OM1 9732   5.173   6.764   1.160  0.0000  0.0000  0.0000
 9733OM     OM1 9733   5.235   6.566   1.001  0.0000  0.0000  0.0000
 9734OM     OM1 9734   4.999   6.571   1.100  0.0000  0.0000  0.0000
 9735OM     OM1 9735   5.075   6.742   0.916  0.0000  0.0000  0.0000
 9736OM     OM1 9736   2.457   7.156   9.165  0.0000  0.0000  0.0000
 9737OM     OM1 9737   2.377   7.104   9.404  0.0000  0.0000  0.0000
 9738OM     OM1 9738   2.282   6.968   9.201  0.0000  0.0000  0.0000
 9739OM     OM1 9739   7.100   1.366   0.218  0.0000  0.0000  0.0000
 9740OM     OM1 9740   6.415   8.002   8.463  0.0000  0.0000  0.0000
 9741OM     OM1 9741   4.582   2.531   9.482  0.0000  0.0000  0.0000
 9742OM     OM1 9742   7.541   6.886   8.563  0.0000  0.0000  0.0000
 9743OM     OM1 9743   7.766   6.891   8.431  0.0000  0.0000  0.0000
 9744OM     OM1 9744   5.445   5.339   1.133  0.0000  0.0000  0.0000
 9745OM     OM1 9745   5.274   5.425   0.958  0.0000  0.0000  0.0000
 9746OM     OM1 9746   7.034   8.077   0.904  0.0000  0.0000  0.0000
 9747OM     OM1 9747   6.786   8.105   1.015  0.0000  0.0000  0.0000
 9748OM     OM1 9748   7.465   2.155   0.683  0.0000  0.0000  0.0000
 9749OM     OM1 9749   7.133   8.845   8.559  0.0000  0.0000  0.0000
 9750OM     OM1 9750   7.223   9.025   8.378  0.0000  0.0000  0.0000
 9751OM     OM1 9751   0.063   2.635   1.168  0.0000  0.0000  0.0000
 9752OM     OM1 9752   0.111   2.543   0.929  0.0000  0.0000  0.0000
 9753OM     OM1 9753   9.470   2.559   1.005  0.0000  0.0000  0.0000
 9754OM     OM1 9754   5.153   0.950   9.237  0.0000  0.0000  0.0000
 9755OM     OM1 9755   5.759   5.640   1.092  0.0000  0.0000  0.0000
 9756OM     OM1 9756   5.954   5.464   1.143  0.0000  0.0000  0.0000
 9757OM     OM1 9757   5.028   3.503   0.663  0.0000  0.0000  0.0000
 9758OM     OM1 9758   5.158   3.325   0.812  0.0000  0.0000  0.0000
 9759OM     OM1 9759   6.724   3.176   9.381  0.0000  0.0000  0.0000
 9760OM     OM1 9760   6.572   2.986   9.304  0.0000  0.0000  0.0000
 9761OM     OM1 9761   9.106   1.879   8.744  0.0000  0.0000  0.0000
 9762OM     OM1 9762   9.206   1.845   0.225  0.0000  0.0000  0.0000
 9763OM     OM1 9763   9.024   2.036   0.206  0.0000  0.0000  0.0000
 9764OM     OM1 9764   6.926   6.066   1.164  0.0000  0.0000  0.0000
 9765OM     OM1 9765   6.839   6.175   1.388  0.0000  0.0000  0.0000
 9766OM     OM1 9766   9.080   3.106   8.400  0.0000  0.0000  0.0000
 9767OM     OM1 9767   0.619   5.062   1.026  0.0000  0.0000  0.0000
 9768OM     OM1 9768   0.819   5.131   1.192  0.0000  0.0000  0.0000
 9769OM     OM1 9769   6.122   5.353   0.732  0.0000  0.0000  0.0000
 9770OM     OM1 9770   6.034   5.103   0.716  0.0000  0.0000  0.0000
 9771OM     OM1 9771   1.146   2.375   1.121  0.0000  0.0000  0.0000
 9772OM     OM1 9772   1.036   2.181   1.004  0.0000  0.0000  0.0000
 9773OM     OM1 9773   1.429   7.760   8.633  0.0000  0.0000  0.0000
 9774OM     OM1 9774   5.724   5.871   1.189  0.0000  0.0000  0.0000
 9775OM     OM1 9775   6.976   4.185   0.254  0.0000  0.0000  0.0000
 9776OM     OM1 9776   1.108   2.805   0.276  0.0000  0.0000  0.0000
 9777OM     OM1 9777   1.463   2.708   0.077  0.0000  0.0000  0.0000
 9778OM     OM1 9778   4.937   9.402   8.560  0.0000  0.0000  0.0000
 9779OM     OM1 9779   5.067   9.480   8.775  0.0000  0.0000  0.0000
 9780OM     OM1 9780   6.445   1.063   0.221  0.0000  0.0000  0.0000
 9781OM     OM1 9781   2.326   0.699   8.510  0.0000  0.0000  0.0000
 9782OM     OM1 9782   2.171   0.616   8.707  0.0000  0.0000  0.0000
 9783OM     OM1 9783   0.101   7.002   9.361  0.0000  0.0000  0.0000
 9784OM     OM1 9784   0.120   7.270   9.385  0.0000  0.0000  0.0000
 9785OM     OM1 9785   0.289   7.134   9.244  0.0000  0.0000  0.0000
 9786OM     OM1 9786   3.580   9.053   0.411  0.0000  0.0000  0.0000
 9787OM     OM1 9787   6.361   6.770   0.086  0.0000  0.0000  0.0000
 9788OM     OM1 9788   6.570   6.825   9.564  0.0000  0.0000  0.0000
 9789OM     OM1 9789   2.704   7.256   0.723  0.0000  0.0000  0.0000
 9790OM     OM1 9790   2.856   3.311   0.591  0.0000  0.0000  0.0000
 9791OM     OM1 9791   2.808   3.521   0.747  0.0000  0.0000  0.0000
 9792OM     OM1 9792   2.919   3.277   0.835  0.0000  0.0000  0.0000
 9793OM     OM1 9793   9.001   1.971   8.961  0.0000  0.0000  0.0000
 9794OM     OM1 9794   1.676   1.550   8.937  0.0000  0.0000  0.0000
 9795OM     OM1 9795   1.518   1.647   8.738  0.0000  0.0000  0.0000
 9796OM     OM1 9796   9.482   0.819   1.029  0.0000  0.0000  0.0000
 9797OM     OM1 9797   9.453   1.005   1.224  0.0000  0.0000  0.0000
 9798OM     OM1 9798   7.421   7.286   0.715  0.0000  0.0000  0.0000
 9799OM     OM1 9799   7.478   7.164   0.494  0.0000  0.0000  0.0000
 9800OM     OM1 9800   0.262   1.905   0.165  0.0000  0.0000  0.0000
 9801OM     OM1 9801   0.310   1.654   0.092  0.0000  0.0000  0.0000
 9802OM     OM1 9802   7.060   5.875   1.060  0.0000  0.0000  0.0000
 9803OM     OM1 9803   7.142   6.129   1.034  0.0000  0.0000  0.0000
 9804OM     OM1 9804   2.667   5.407   8.383  0.0000  0.0000  0.0000
 9805OM     OM1 9805   3.842   1.905   9.396  0.0000  0.0000  0.0000
 9806OM     OM1 9806   3.405   1.801   8.628  0.0000  0.0000  0.0000
 9807OM     OM1 9807   5.026   6.989   8.528  0.0000  0.0000  0.0000
 9808OM     OM1 9808   8.934   9.458   8.416  0.0000  0.0000  0.0000
 9809OM     OM1 9809   7.263   7.560   9.398  0.0000  0.0000  0.0000
 9810OM     OM1 9810   7.018   7.562   9.485  0.0000  0.0000  0.0000
 9811OM     OM1 9811   8.001   1.796   0.907  0.0000  0.0000  0.0000
 9812OM     OM1 9812   8.109   1.860   0.679  0.0000  0.0000  0.0000
 9813OM     OM1 9813   2.129   5.782   9.418  0.0000  0.0000  0.0000
 9814OM     OM1 9814   1.931   5.803   9.582  0.0000  0.0000  0.0000
 9815OM     OM1 9815   1.897   5.696   9.349  0.0000  0.0000  0.0000
 9816OM     OM1 9816   0.241   8.162   9.280  0.0000  0.0000  0.0000
 9817OM     OM1 9817   0.344   4.620   0.576  0.0000  0.0000  0.0000
 9818OM     OM1 9818   0.127   4.753   0.540  0.0000  0.0000  0.0000
 9819OM     OM1 9819   2.907   7.370   0.831  0.0000  0.0000  0.0000
 9820OM     OM1 9820   2.934   7.536   0.639  0.0000  0.0000  0.0000
 9821OM     OM1 9821   6.737   1.674   9.045  0.0000  0.0000  0.0000
 9822OM     OM1 9822   8.759   1.057   8.391  0.0000  0.0000  0.0000
 9823OM     OM1 9823   8.940   1.117   8.219  0.0000  0.0000  0.0000
 9824OM     OM1 9824   1.352   8.214   8.550  0.0000  0.0000  0.0000
 9825OM     OM1 9825   7.532   2.125   1.109  0.0000  0.0000  0.0000
 9826OM     OM1 9826   2.208   6.027   9.390  0.0000  0.0000  0.0000
 9827OM     OM1 9827   8.356   2.955   8.393  0.0000  0.0000  0.0000
 9828OM     OM1 9828   8.214   3.176   8.344  0.0000  0.0000  0.0000
 9829OM     OM1 9829   2.133   7.505   9.187  0.0000  0.0000  0.0000
 9830OM     OM1 9830   2.323   7.670   9.274  0.0000  0.0000  0.0000
 9831OM     OM1 9831   1.173   4.166   0.402  0.0000  0.0000  0.0000
 9832OM     OM1 9832   1.060   4.175   0.170  0.0000  0.0000  0.0000
 9833OM     OM1 9833   0.986   4.004   0.351  0.0000  0.0000  0.0000
 9834OM     OM1 9834   6.598   9.270   8.929  0.0000  0.0000  0.0000
 9835OM     OM1 9835   0.955   0.271   8.450  0.0000  0.0000  0.0000
 9836OM     OM1 9836   8.505   2.120   9.382  0.0000  0.0000  0.0000
 9837OM     OM1 9837   8.362   1.893   9.401  0.0000  0.0000  0.0000
 9838OM     OM1 9838   8.245   2.120   9.395  0.0000  0.0000  0.0000
 9839OM     OM1 9839   7.014   1.036   9.349  0.0000  0.0000  0.0000
 9840OM     OM1 9840   7.183   0.841   9.381  0.0000  0.0000  0.0000
 9841OM     OM1 9841   1.575   8.499   0.420  0.0000  0.0000  0.0000
 9842OM     OM1 9842   1.504   8.747   0.400  0.0000  0.0000  0.0000
 9843OM     OM1 9843   2.975   7.334   8.502  0.0000  0.0000  0.0000
 9844OM     OM1 9844   3.011   7.122   8.359  0.0000  0.0000  0.0000
 9845OM     OM1 9845   3.194   1.876   0.021  0.0000  0.0000  0.0000
 9846OM     OM1 9846   3.303   1.802   0.249  0.0000  0.0000  0.0000
 9847OM     OM1 9847   3.233   1.623   0.056  0.0000  0.0000  0.0000
 9848OM     OM1 9848   7.332   4.016   9.311  0.0000  0.0000  0.0000
 9849OM     OM1 9849   0.624   5.475   0.507  0.0000  0.0000  0.0000
 9850OM     OM1 9850   0.860   5.387   0.539  0.0000  0.0000  0.0000
 9851OM     OM1 9851   8.566   9.547   0.933  0.0000  0.0000  0.0000
 9852OM     OM1 9852   5.942   1.698   1.404  0.0000  0.0000  0.0000
 9853OM     OM1 9853   6.160   1.678   1.277  0.0000  0.0000  0.0000
 9854OM     OM1 9854   1.988   3.305   0.191  0.0000  0.0000  0.0000
 9855OM     OM1 9855   3.850   8.929   8.591  0.0000  0.0000  0.0000
 9856OM     OM1 9856   3.760   9.167   8.656  0.0000  0.0000  0.0000
 9857OM     OM1 9857   1.051   7.138   0.135  0.0000  0.0000  0.0000
 9858OM     OM1 9858   2.905   0.010   8.382  0.0000  0.0000  0.0000
 9859OM     OM1 9859   3.052   0.219   8.310  0.0000  0.0000  0.0000
 9860OM     OM1 9860   1.156   8.305   0.554  0.0000  0.0000  0.0000
 9861OM     OM1 9861   0.927   8.327   0.669  0.0000  0.0000  0.0000
 9862OM     OM1 9862   3.194   0.949   9.482  0.0000  0.0000  0.0000
 9863OM     OM1 9863   2.976   0.964   9.344  0.0000  0.0000  0.0000
 9864OM     OM1 9864   5.316   7.356   8.823  0.0000  0.0000  0.0000
 9865OM     OM1 9865   1.668   3.720   0.788  0.0000  0.0000  0.0000
 9866OM     OM1 9866   1.861   3.795   0.638  0.0000  0.0000  0.0000
 9867OM     OM1 9867   4.468   1.681   0.799  0.0000  0.0000  0.0000
 9868OM     OM1 9868   4.459   1.461   0.951  0.0000  0.0000  0.0000
 9869OM     OM1 9869   4.252   1.606   0.903  0.0000  0.0000  0.0000
 9870OM     OM1 9870   3.204   6.892   9.001  0.0000  0.0000  0.0000
 9871OM     OM1 9871   4.245   0.265   0.638  0.0000  0.0000  0.0000
 9872OM     OM1 9872   4.425   0.166   0.470  0.0000  0.0000  0.0000
 9873OM     OM1 9873   6.016   4.029   8.590  0.0000  0.0000  0.0000
 9874OM     OM1 9874   5.908   3.973   8.817  0.0000  0.0000  0.0000
 9875OM     OM1 9875   7.634   8.655   8.537  0.0000  0.0000  0.0000
 9876OM     OM1 9876   7.769   8.520   8.717  0.0000  0.0000  0.0000
 9877OM     OM1 9877   7.985   1.638   1.117  0.0000  0.0000  0.0000
 9878OM     OM1 9878   7.919   1.545   0.878  0.0000  0.0000  0.0000
 9879OM     OM1 9879   4.553   8.280   0.438  0.0000  0.0000  0.0000
 9880OM     OM1 9880   1.314   6.804   0.774  0.0000  0.0000  0.0000
 9881OM     OM1 9881   1.215   6.885   0.550  0.0000  0.0000  0.0000
 9882OM     OM1 9882   2.213   6.135   8.732  0.0000  0.0000  0.0000
 9883OM     OM1 9883   2.322   6.261   8.933  0.0000  0.0000  0.0000
 9884OM     OM1 9884   6.221   6.648   0.276  0.0000  0.0000  0.0000
 9885OM     OM1 9885   0.439   9.336   0.897  0.0000  0.0000  0.0000
 9886OM     OM1 9886   1.163   7.967   9.305  0.0000  0.0000  0.0000
 9887OM     OM1 9887   4.932   2.209   0.242  0.0000  0.0000  0.0000
 9888OM     OM1 9888   5.076   2.576   0.418  0.0000  0.0000  0.0000
 9889OM     OM1 9889   5.041   2.454   0.203  0.0000  0.0000  0.0000
 9890OM     OM1 9890   5.629   6.375   9.208  0.0000  0.0000  0.0000
 9891OM     OM1 9891   5.854   6.509   9.239  0.0000  0.0000  0.0000
 9892OM     OM1 9892   5.630   6.626   9.207  0.0000  0.0000  0.0000
 9893OM     OM1 9893   4.086   0.687   0.528  0.0000  0.0000  0.0000
 9894OM     OM1 9894   4.191   0.510   0.671  0.0000  0.0000  0.0000
 9895OM     OM1 9895   2.901   2.476   9.250  0.0000  0.0000  0.0000
 9896OM     OM1 9896   9.150   6.605   0.295  0.0000  0.0000  0.0000
 9897OM     OM1 9897   4.064   0.184   0.000  0.0000  0.0000  0.0000
 9898OM     OM1 9898   3.870   0.275   0.143  0.0000  0.0000  0.0000
 9899OM     OM1 9899   6.774   3.195   1.279  0.0000  0.0000  0.0000
 9900OM     OM1 9900   8.085   1.168   0.362  0.0000  0.0000  0.0000
 9901OM     OM1 9901   7.862   1.205   0.497  0.0000  0.0000  0.0000
 9902OM     OM1 9902   7.929   0.964   0.421  0.0000  0.0000  0.0000
 9903OM     OM1 9903   3.034   3.732   1.282  0.0000  0.0000  0.0000
 9904OM     OM1 9904   2.875   3.511   1.262  0.0000  0.0000  0.0000
 9905OM     OM1 9905   2.819   3.730   1.134  0.0000  0.0000  0.0000
 9906OM     OM1 9906   1.268   5.522   9.391  0.0000  0.0000  0.0000
 9907OM     OM1 9907   1.095   5.455   9.578  0.0000  0.0000  0.0000
 9908OM     OM1 9908   6.974   0.853   8.915  0.0000  0.0000  0.0000
 9909OM     OM1 9909   6.810   0.658   8.906  0.0000  0.0000  0.0000
 9910OM     OM1 9910   7.320   9.257   8.422  0.0000  0.0000  0.0000
 9911OM     OM1 9911   3.055   9.394   8.763  0.0000  0.0000  0.0000
 9912OM     OM1 9912   7.641   8.561   9.316  0.0000  0.0000  0.0000
 9913OM     OM1 9913   6.957   3.669   0.990  0.0000  0.0000  0.0000
 9914OM     OM1 9914   5.526   0.257   8.795  0.0000  0.0000  0.0000
 9915OM     OM1 9915   5.785   0.226   8.809  0.0000  0.0000  0.0000
 9916OM     OM1 9916   5.036   2.329   9.310  0.0000  0.0000  0.0000
 9917OM     OM1 9917   2.715   5.009   0.673  0.0000  0.0000  0.0000
 9918OM     OM1 9918   2.764   5.004   0.418  0.0000  0.0000  0.0000
 9919OM     OM1 9919   3.995   6.588   8.566  0.0000  0.0000  0.0000
 9920OM     OM1 9920   4.137   6.432   8.713  0.0000  0.0000  0.0000
 9921OM     OM1 9921   7.115   4.809   8.758  0.0000  0.0000  0.0000
 9922OM     OM1 9922   3.572   6.180   0.341  0.0000  0.0000  0.0000
 9923OM     OM1 9923   3.372   6.660   0.321  0.0000  0.0000  0.0000
 9924OM     OM1 9924   7.842   7.442   9.166  0.0000  0.0000  0.0000
 9925OM     OM1 9925   7.852   7.715   9.148  0.0000  0.0000  0.0000
 9926OM     OM1 9926   8.001   1.309   0.937  0.0000  0.0000  0.0000
 9927OM     OM1 9927   2.682   9.502   8.302  0.0000  0.0000  0.0000
 9928OM     OM1 9928   7.506   7.538   9.507  0.0000  0.0000  0.0000
 9929OM     OM1 9929   4.679   2.812   9.192  0.0000  0.0000  0.0000
 9930OM     OM1 9930   2.484   0.852   8.355  0.0000  0.0000  0.0000
 9931OM     OM1 9931   8.703   4.981   9.387  0.0000  0.0000  0.0000
 9932OM     OM1 9932   8.578   5.034   0.003  0.0000  0.0000  0.0000
 9933OM     OM1 9933   4.352   4.841   1.115  0.0000  0.0000  0.0000
 9934OM     OM1 9934   7.852   0.725   0.533  0.0000  0.0000  0.0000
 9935OM     OM1 9935   3.560   9.256   8.805  0.0000  0.0000  0.0000
 9936OM     OM1 9936   0.138   4.388   9.546  0.0000  0.0000  0.0000
 9937OM     OM1 9937   9.589   4.265   9.382  0.0000  0.0000  0.0000
 9938OM     OM1 9938   6.251   7.718   0.503  0.0000  0.0000  0.0000
 9939OM     OM1 9939   8.161   7.819   8.556  0.0000  0.0000  0.0000
 9940OM     OM1 9940   8.040   8.122   8.889  0.0000  0.0000  0.0000
 9941OM     OM1 9941   3.972   7.168   0.138  0.0000  0.0000  0.0000
 9942OM     OM1 9942   3.755   7.091   0.030  0.0000  0.0000  0.0000
 9943OM     OM1 9943   1.344   0.627   8.682  0.0000  0.0000  0.0000
 9944OM     OM1 9944   6.081   7.386   0.664  0.0000  0.0000  0.0000
 9945OM     OM1 9945   1.810   4.885   0.515  0.0000  0.0000  0.0000
 9946OM     OM1 9946   1.613   4.847   0.356  0.0000  0.0000  0.0000
 9947OM     OM1 9947   8.751   2.592   0.852  0.0000  0.0000  0.0000
 9948OM     OM1 9948   8.977   2.595   0.974  0.0000  0.0000  0.0000
 9949OM     OM1 9949   8.542   6.711   1.130  0.0000  0.0000  0.0000
 9950OM     OM1 9950   8.486   6.473   1.241  0.0000  0.0000  0.0000
 9951OM     OM1 9951   4.698   3.776   9.206  0.0000  0.0000  0.0000
 9952OM     OM1 9952   4.501   3.945   9.218  0.0000  0.0000  0.0000
 9953OM     OM1 9953   4.683   3.965   9.029  0.0000  0.0000  0.0000
 9954OM     OM1 9954   4.751   4.025   9.271  0.0000  0.0000  0.0000
 9955OM     OM1 9955   5.481   5.636   8.910  0.0000  0.0000  0.0000
 9956OM     OM1 9956   1.520   8.668   0.157  0.0000  0.0000  0.0000
 9957OM     OM1 9957   9.063   9.303   0.138  0.0000  0.0000  0.0000
 9958OM     OM1 9958   0.898   3.137   9.542  0.0000  0.0000  0.0000
 9959OM     OM1 9959   8.981   8.940   9.120  0.0000  0.0000  0.0000
 9960OM     OM1 9960   9.067   8.865   9.344  0.0000  0.0000  0.0000
 9961OM     OM1 9961   4.918   1.011   0.843  0.0000  0.0000  0.0000
 9962OM     OM1 9962   8.544   1.539   8.439  0.0000  0.0000  0.0000
 9963OM     OM1 9963   8.669   1.310   8.397  0.0000  0.0000  0.0000
 9964OM     OM1 9964   7.630   3.243   8.529  0.0000  0.0000  0.0000
 9965OM     OM1 9965   4.529   5.220   1.090  0.0000  0.0000  0.0000
 9966OM     OM1 9966   4.267   5.173   1.079  0.0000  0.0000  0.0000
 9967OM     OM1 9967   6.468   4.310   8.951  0.0000  0.0000  0.0000
 9968OM     OM1 9968   4.752   8.230   0.074  0.0000  0.0000  0.0000
 9969OM     OM1 9969   4.955   8.072   0.095  0.0000  0.0000  0.0000
 9970OM     OM1 9970   1.474   6.657   9.192  0.0000  0.0000  0.0000
 9971OM     OM1 9971   6.195   4.453   1.237  0.0000  0.0000  0.0000
 9972OM     OM1 9972   6.197   4.607   1.015  0.0000  0.0000  0.0000
 9973OM     OM1 9973   0.158   4.258   0.901  0.0000  0.0000  0.0000
 9974OM     OM1 9974   0.145   3.840   8.711  0.0000  0.0000  0.0000
 9975OM     OM1 9975   0.173   3.784   8.949  0.0000  0.0000  0.0000
 9976OM     OM1 9976   2.344   7.564   0.475  0.0000  0.0000  0.0000
 9977OM     OM1 9977   7.999   8.502   8.604  0.0000  0.0000  0.0000
 9978OM     OM1 9978   8.375   8.752   8.420  0.0000  0.0000  0.0000
 9979OM     OM1 9979   3.360   5.746   0.704  0.0000  0.0000  0.0000
 9980OM     OM1 9980   3.482   5.963   0.696  0.0000  0.0000  0.0000
 9981OM     OM1 9981   3.525   3.275   0.247  0.0000  0.0000  0.0000
 9982OM     OM1 9982   5.454   4.403   8.717  0.0000  0.0000  0.0000
 9983OM     OM1 9983   1.027   5.078   8.902  0.0000  0.0000  0.0000
 9984OM     OM1 9984   1.138   0.442   0.746  0.0000  0.0000  0.0000
 9985OM     OM1 9985   1.319   0.324   0.886  0.0000  0.0000  0.0000
 9986OM     OM1 9986   0.202   7.488   9.517  0.0000  0.0000  0.0000
 9987OM     OM1 9987   0.078   0.657   0.337  0.0000  0.0000  0.0000
 9988OM     OM1 9988   6.488   4.908   9.093  0.0000  0.0000  0.0000
 9989OM     OM1 9989   6.433   4.676   9.200  0.0000  0.0000  0.0000
 9990OM     OM1 9990   1.400   0.891   1.290  0.0000  0.0000  0.0000
 9991OM     OM1 9991   0.778   6.100   1.342  0.0000  0.0000  0.0000
 9992OM     OM1 9992   0.647   6.282   1.201  0.0000  0.0000  0.0000
 9993OM     OM1 9993   3.754   9.353   1.179  0.0000  0.0000  0.0000
 9994OM     OM1 9994   4.143   9.460   1.047  0.0000  0.0000  0.0000
 9995OM     OM1 9995   4.010   9.381   1.253  0.0000  0.0000  0.0000
 9996OM     OM1 9996   5.494   1.097   0.007  0.0000  0.0000  0.0000
 9997OM     OM1 9997   8.697   7.138   8.559  0.0000  0.0000  0.0000
 9998OM     OM1 9998   8.647   7.396   8.510  0.0000  0.0000  0.0000
 9999OM     OM1 9999   8.726   7.259   0.275  0.0000  0.0000  0.0000
10000OM     OM110000   8.778   7.432   0.456  0.0000  0.0000  0.0000
10001OM     OM110001   8.956   7.252   0.380  0.0000  0.0000  0.0000
10002OM     OM110002   1.153   4.299   8.681  0.0000  0.0000  0.0000
10003OM     OM110003   1.331   4.165   8.781  0.0000  0.0000  0.0000
10004OM     OM110004   1.380   4.301   8.559  0.0000  0.0000  0.0000
10005OM     OM110005   2.155   6.196   9.592  0.0000  0.0000  0.0000
10006OM     OM110006   1.960   6.284   0.118  0.0000  0.0000  0.0000
10007OM     OM110007   5.593   5.727   0.362  0.0000  0.0000  0.0000
10008OM     OM110008   6.542   6.008   1.066  0.0000  0.0000  0.0000
10009OM     OM110009   3.800   9.321   8.855  0.0000  0.0000  0.0000
10010OM     OM110010   2.052   1.952   0.258  0.0000  0.0000  0.0000
10011OM     OM110011   2.285   1.844   0.280  0.0000  0.0000  0.0000
10012OM     OM110012   8.075   4.448   8.235  0.0000  0.0000  0.0000
10013OM     OM110013   0.781   8.314   9.211  0.0000  0.0000  0.0000
10014OM     OM110014   0.721   8.083   9.109  0.0000  0.0000  0.0000
10015OM     OM110015   8.042   4.203   8.776  0.0000  0.0000  0.0000
10016OM     OM110016   6.863   0.566   0.463  0.0000  0.0000  0.0000
10017OM     OM110017   6.969   0.616   0.224  0.0000  0.0000  0.0000
10018OM     OM110018   1.947   4.669   0.496  0.0000  0.0000  0.0000
10019OM     OM110019   1.895   4.455   0.354  0.0000  0.0000  0.0000
10020OM     OM110020   2.036   4.649   0.245  0.0000  0.0000  0.0000
10021OM     OM110021   2.228   1.532   1.083  0.0000  0.0000  0.0000
10022OM     OM110022   8.343   8.751   8.882  0.0000  0.0000  0.0000
10023OM     OM110023   8.444   8.812   8.662  0.0000  0.0000  0.0000
10024OM     OM110024   8.102   8.809   8.906  0.0000  0.0000  0.0000
10025OM     OM110025   1.440   2.477   9.169  0.0000  0.0000  0.0000
10026OM     OM110026   1.469   0.305   0.180  0.0000  0.0000  0.0000
10027OM     OM110027   4.313   3.023   0.308  0.0000  0.0000  0.0000
10028OM     OM110028   4.374   3.271   0.363  0.0000  0.0000  0.0000
10029OM     OM110029   9.319   7.879   8.733  0.0000  0.0000  0.0000
10030OM     OM110030   6.948   2.629   1.342  0.0000  0.0000  0.0000
10031OM     OM110031   7.463   9.359   8.621  0.0000  0.0000  0.0000
10032OM     OM110032   7.517   0.108   8.554  0.0000  0.0000  0.0000
10033OM     OM110033   0.471   2.372   1.267  0.0000  0.0000  0.0000
10034OM     OM110034   6.444   4.055   1.343  0.0000  0.0000  0.0000
10035OM     OM110035   6.607   4.244   1.266  0.0000  0.0000  0.0000
10036OM     OM110036   6.368   4.298   1.357  0.0000  0.0000  0.0000
10037OM     OM110037   0.790   6.113   8.768  0.0000  0.0000  0.0000
10038OM     OM110038   0.771   6.364   8.697  0.0000  0.0000  0.0000
10039OM     OM110039   6.750   5.322   0.127  0.0000  0.0000  0.0000
10040OM     OM110040   0.715   6.299   9.096  0.0000  0.0000  0.0000
10041OM     OM110041   0.913   7.759   9.482  0.0000  0.0000  0.0000
10042OM     OM110042   6.107   0.829   8.543  0.0000  0.0000  0.0000
10043OM     OM110043   6.084   1.068   8.438  0.0000  0.0000  0.0000
10044OM     OM110044   2.294   0.705   8.915  0.0000  0.0000  0.0000
10045OM     OM110045   2.429   0.908   9.016  0.0000  0.0000  0.0000
10046OM     OM110046   4.038   4.764   8.470  0.0000  0.0000  0.0000
10047OM     OM110047   3.878   4.938   8.372  0.0000  0.0000  0.0000
10048OM     OM110048   1.503   9.137   1.290  0.0000  0.0000  0.0000
10049OM     OM110049   1.912   1.842   8.432  0.0000  0.0000  0.0000
10050OM     OM110050   2.086   1.947   8.602  0.0000  0.0000  0.0000
10051OM     OM110051   2.973   3.052   0.712  0.0000  0.0000  0.0000
10052OM     OM110052   8.234   1.821   0.458  0.0000  0.0000  0.0000
10053OM     OM110053   7.443   0.445   8.203  0.0000  0.0000  0.0000
10054OM     OM110054   2.154   2.665   0.490  0.0000  0.0000  0.0000
10055OM     OM110055   6.673   8.858   8.593  0.0000  0.0000  0.0000
10056OM     OM110056   7.451   8.024   0.644  0.0000  0.0000  0.0000
10057OM     OM110057   0.240   8.022   0.642  0.0000  0.0000  0.0000
10058OM     OM110058   0.274   8.049   0.387  0.0000  0.0000  0.0000
10059OM     OM110059   8.652   4.008   0.347  0.0000  0.0000  0.0000
10060OM     OM110060   8.663   3.746   0.405  0.0000  0.0000  0.0000
10061OM     OM110061   8.837   3.867   0.244  0.0000  0.0000  0.0000
10062OM     OM110062   3.088   1.288   0.591  0.0000  0.0000  0.0000
10063OM     OM110063   0.070   8.071   8.470  0.0000  0.0000  0.0000
10064OM     OM110064   0.188   8.318   8.664  0.0000  0.0000  0.0000
10065OM     OM110065   5.057   7.562   0.395  0.0000  0.0000  0.0000
10066OM     OM110066   4.889   7.675   0.546  0.0000  0.0000  0.0000
10067OM     OM110067   2.383   3.449   8.561  0.0000  0.0000  0.0000
10068OM     OM110068   2.950   3.311   8.472  0.0000  0.0000  0.0000
10069OM     OM110069   2.923   3.566   8.371  0.0000  0.0000  0.0000
10070OM     OM110070   1.437   8.530   9.563  0.0000  0.0000  0.0000
10071OM     OM110071   1.281   4.642   9.037  0.0000  0.0000  0.0000
10072OM     OM110072   6.791   0.950   0.950  0.0000  0.0000  0.0000
10073OM     OM110073   6.530   0.974   0.939  0.0000  0.0000  0.0000
10074OM     OM110074   5.260   0.675   8.795  0.0000  0.0000  0.0000
10075OM     OM110075   5.153   0.804   8.349  0.0000  0.0000  0.0000
10076OM     OM110076   8.146   2.731   1.118  0.0000  0.0000  0.0000
10077OM     OM110077   4.963   5.150   0.643  0.0000  0.0000  0.0000
10078OM     OM110078   5.184   5.068   0.522  0.0000  0.0000  0.0000
10079OM     OM110079   5.177   5.310   0.591  0.0000  0.0000  0.0000
10080OM     OM110080   1.214   7.307   8.341  0.0000  0.0000  0.0000
10081OM     OM110081   1.393   7.564   8.482  0.0000  0.0000  0.0000
10082OM     OM110082   2.170   0.127   1.113  0.0000  0.0000  0.0000
10083OM     OM110083   5.156   6.973   8.297  0.0000  0.0000  0.0000
10084OM     OM110084   4.923   7.343   8.541  0.0000  0.0000  0.0000
10085OM     OM110085   0.955   1.361   8.319  0.0000  0.0000  0.0000
10086OM     OM110086   1.027   1.124   8.239  0.0000  0.0000  0.0000
10087OM     OM110087   8.563   4.900   1.198  0.0000  0.0000  0.0000
10088OM     OM110088   5.031   1.164   9.187  0.0000  0.0000  0.0000
10089OM     OM110089   3.473   5.053   0.677  0.0000  0.0000  0.0000
10090OM     OM110090   6.154   6.428   0.375  0.0000  0.0000  0.0000
10091OM     OM110091   7.807   5.074   9.190  0.0000  0.0000  0.0000
10092OM     OM110092   7.764   4.966   9.434  0.0000  0.0000  0.0000
10093OM     OM110093   6.088   3.824   8.922  0.0000  0.0000  0.0000
10094OM     OM110094   5.827   3.826   9.002  0.0000  0.0000  0.0000
10095OM     OM110095   1.949   0.699   9.212  0.0000  0.0000  0.0000
10096OM     OM110096   1.775   0.893   9.194  0.0000  0.0000  0.0000
10097OM     OM110097   5.386   7.119   8.739  0.0000  0.0000  0.0000
10098OM     OM110098   3.602   7.630   0.424  0.0000  0.0000  0.0000
10099OM     OM110099   3.733   7.394   0.467  0.0000  0.0000  0.0000
10100OM     OM110100   3.483   7.399   0.441  0.0000  0.0000  0.0000
10101OM     OM110101   5.392   4.679   0.326  0.0000  0.0000  0.0000
10102OM     OM110102   1.638   1.912   9.437  0.0000  0.0000  0.0000
10103OM     OM110103   1.573   1.674   9.471  0.0000  0.0000  0.0000
10104OM     OM110104   3.918   2.525   1.237  0.0000  0.0000  0.0000
10105OM     OM110105   1.034   5.338   8.454  0.0000  0.0000  0.0000
10106OM     OM110106   3.389   5.238   8.986  0.0000  0.0000  0.0000
10107OM     OM110107   3.619   8.131   9.445  0.0000  0.0000  0.0000
10108OM     OM110108   2.136   5.030   0.634  0.0000  0.0000  0.0000
10109OM     OM110109   1.987   4.835   0.701  0.0000  0.0000  0.0000
10110OM     OM110110   2.993   8.682   8.896  0.0000  0.0000  0.0000
10111OM     OM110111   2.989   8.739   8.649  0.0000  0.0000  0.0000
10112OM     OM110112   1.437   2.134   8.865  0.0000  0.0000  0.0000
10113OM     OM110113   1.428   2.196   8.617  0.0000  0.0000  0.0000
10114OM     OM110114   3.833   3.431   8.580  0.0000  0.0000  0.0000
10115OM     OM110115   8.768   7.678   0.363  0.0000  0.0000  0.0000
10116OM     OM110116   8.653   7.629   0.590  0.0000  0.0000  0.0000
10117OM     OM110117   1.547   1.129   0.663  0.0000  0.0000  0.0000
10118OM     OM110118   1.370   0.964   0.568  0.0000  0.0000  0.0000
10119OM     OM110119   5.337   2.269   1.088  0.0000  0.0000  0.0000
10120OM     OM110120   3.420   3.158   0.461  0.0000  0.0000  0.0000
10121OM     OM110121   8.380   3.259   1.242  0.0000  0.0000  0.0000
10122OM     OM110122   2.320   7.307   9.012  0.0000  0.0000  0.0000
10123OM     OM110123   7.540   1.845   9.239  0.0000  0.0000  0.0000
10124OM     OM110124   3.194   4.682   8.279  0.0000  0.0000  0.0000
10125OM     OM110125   2.095   2.204   0.308  0.0000  0.0000  0.0000
10126OM     OM110126   2.090   2.037   0.506  0.0000  0.0000  0.0000
10127OM     OM110127   7.658   2.611   0.248  0.0000  0.0000  0.0000
10128OM     OM110128   0.661   3.530   0.528  0.0000  0.0000  0.0000
10129OM     OM110129   8.680   7.841   0.738  0.0000  0.0000  0.0000
10130OM     OM110130   8.820   7.966   0.931  0.0000  0.0000  0.0000
10131OM     OM110131   7.192   4.459   8.931  0.0000  0.0000  0.0000
10132OM     OM110132   2.575   8.381   0.038  0.0000  0.0000  0.0000
10133OM     OM110133   2.781   8.287   9.536  0.0000  0.0000  0.0000
10134OM     OM110134   2.539   8.161   9.518  0.0000  0.0000  0.0000
10135OM     OM110135   2.667   8.134   0.120  0.0000  0.0000  0.0000
10136OM     OM110136   2.529   0.789   9.558  0.0000  0.0000  0.0000
10137OM     OM110137   2.956   8.715   9.154  0.0000  0.0000  0.0000
10138OM     OM110138   1.247   0.988   0.336  0.0000  0.0000  0.0000
10139OM     OM110139   7.929   2.828   0.993  0.0000  0.0000  0.0000
10140OM     OM110140   9.508   1.675   8.292  0.0000  0.0000  0.0000
10141OM     OM110141   8.509   7.584   8.363  0.0000  0.0000  0.0000
10142OM     OM110142   8.152   7.482   0.150  0.0000  0.0000  0.0000
10143OM     OM110143   5.858   6.492   8.398  0.0000  0.0000  0.0000
10144OM     OM110144   8.713   6.503   8.464  0.0000  0.0000  0.0000
10145OM     OM110145   0.807   1.306   1.088  0.0000  0.0000  0.0000
10146OM     OM110146   0.775   1.060   1.202  0.0000  0.0000  0.0000
10147OM     OM110147   0.671   1.117   0.973  0.0000  0.0000  0.0000
10148OM     OM110148   7.272   6.542   1.313  0.0000  0.0000  0.0000
10149OM     OM110149   7.154   6.338   1.196  0.0000  0.0000  0.0000
10150OM     OM110150   8.975   9.548   0.166  0.0000  0.0000  0.0000
10151OM     OM110151   8.833   9.352   0.041  0.0000  0.0000  0.0000
10152OM     OM110152   8.842   4.821   0.273  0.0000  0.0000  0.0000
10153OM     OM110153   3.949   1.253   1.010  0.0000  0.0000  0.0000
10154OM     OM110154   4.154   1.394   1.011  0.0000  0.0000  0.0000
10155OM     OM110155   8.593   1.215   9.343  0.0000  0.0000  0.0000
10156OM     OM110156   8.265   1.288   9.156  0.0000  0.0000  0.0000
10157OM     OM110157   2.639   1.118   0.663  0.0000  0.0000  0.0000
10158OM     OM110158   3.305   3.775   1.219  0.0000  0.0000  0.0000
10159OM     OM110159   1.116   0.984   8.441  0.0000  0.0000  0.0000
10160OM     OM110160   0.897   5.556   0.112  0.0000  0.0000  0.0000
10161OM     OM110161   0.891   0.483   0.699  0.0000  0.0000  0.0000
10162OM     OM110162   0.662   0.509   0.820  0.0000  0.0000  0.0000
10163OM     OM110163   6.365   0.279   9.269  0.0000  0.0000  0.0000
10164OM     OM110164   6.374   0.496   9.143  0.0000  0.0000  0.0000
10165OM     OM110165   7.838   4.346   8.260  0.0000  0.0000  0.0000
10166OM     OM110166   4.792   3.101   0.991  0.0000  0.0000  0.0000
10167OM     OM110167   1.067   2.293   9.400  0.0000  0.0000  0.0000
10168OM     OM110168   0.169   1.924   9.279  0.0000  0.0000  0.0000
10169OM     OM110169   0.147   2.097   9.074  0.0000  0.0000  0.0000
10170OM     OM110170   1.430   3.660   0.851  0.0000  0.0000  0.0000
10171OM     OM110171   3.221   3.042   0.596  0.0000  0.0000  0.0000
10172OM     OM110172   2.775   9.420   0.661  0.0000  0.0000  0.0000
10173OM     OM110173   3.017   9.296   0.616  0.0000  0.0000  0.0000
10174OM     OM110174   6.012   0.257   8.923  0.0000  0.0000  0.0000
10175OM     OM110175   5.080   3.189   9.285  0.0000  0.0000  0.0000
10176OM     OM110176   5.132   2.974   9.140  0.0000  0.0000  0.0000
10177OM     OM110177   1.459   4.811   8.960  0.0000  0.0000  0.0000
10178OM     OM110178   4.903   3.620   9.161  0.0000  0.0000  0.0000
10179OM     OM110179   5.051   3.445   9.265  0.0000  0.0000  0.0000
10180OM     OM110180   5.160   3.665   9.171  0.0000  0.0000  0.0000
10181OM     OM110181   8.539   7.848   0.517  0.0000  0.0000  0.0000
10182OM     OM110182   8.451   7.724   0.734  0.0000  0.0000  0.0000
10183OM     OM110183   0.177   1.975   9.543  0.0000  0.0000  0.0000
10184OM     OM110184   0.392   2.099   0.043  0.0000  0.0000  0.0000
10185OM     OM110185   7.335   5.206   1.234  0.0000  0.0000  0.0000
10186OM     OM110186   7.589   1.939   8.997  0.0000  0.0000  0.0000
10187OM     OM110187   6.523   3.266   8.741  0.0000  0.0000  0.0000
10188OM     OM110188   6.717   3.162   8.883  0.0000  0.0000  0.0000
10189OM     OM110189   6.662   9.082   8.746  0.0000  0.0000  0.0000
10190OM     OM110190   1.769   5.650   8.641  0.0000  0.0000  0.0000
10191OM     OM110191   1.931   5.555   8.819  0.0000  0.0000  0.0000
10192OM     OM110192   4.563   9.572   9.144  0.0000  0.0000  0.0000
10193OM     OM110193   4.404   0.028   8.960  0.0000  0.0000  0.0000
10194OM     OM110194   4.627   8.671   1.077  0.0000  0.0000  0.0000
10195OM     OM110195   4.793   8.537   1.281  0.0000  0.0000  0.0000
10196OM     OM110196   0.047   2.375   8.659  0.0000  0.0000  0.0000
10197OM     OM110197   0.193   2.247   8.486  0.0000  0.0000  0.0000
10198OM     OM110198   2.124   6.143   0.719  0.0000  0.0000  0.0000
10199OM     OM110199   5.543   7.112   1.247  0.0000  0.0000  0.0000
10200OM     OM110200   2.909   1.985   8.894  0.0000  0.0000  0.0000
10201OM     OM110201   4.294   1.067   9.300  0.0000  0.0000  0.0000
10202OM     OM110202   4.272   1.171   9.060  0.0000  0.0000  0.0000
10203OM     OM110203   6.292   5.733   9.546  0.0000  0.0000  0.0000
10204OM     OM110204   7.331   1.991   0.216  0.0000  0.0000  0.0000
10205OM     OM110205   3.700   5.893   0.564  0.0000  0.0000  0.0000
10206OM     OM110206   9.296   0.342   0.240  0.0000  0.0000  0.0000
10207OM     OM110207   9.139   0.124   0.259  0.0000  0.0000  0.0000
10208OM     OM110208   9.354   0.147   0.083  0.0000  0.0000  0.0000
10209OM     OM110209   1.005   8.750   9.461  0.0000  0.0000  0.0000
10210OM     OM110210   1.264   8.691   9.459  0.0000  0.0000  0.0000
10211OM     OM110211   9.201   1.452   8.790  0.0000  0.0000  0.0000
10212OM     OM110212   9.429   1.339   8.878  0.0000  0.0000  0.0000
10213OM     OM110213   1.102   7.527   8.258  0.0000  0.0000  0.0000
10214OM     OM110214   0.520   2.356   8.973  0.0000  0.0000  0.0000
10215OM     OM110215   0.645   2.577   8.876  0.0000  0.0000  0.0000
10216OM     OM110216   0.817   6.519   0.732  0.0000  0.0000  0.0000
10217OM     OM110217   0.496   7.917   0.345  0.0000  0.0000  0.0000
10218OM     OM110218   2.794   4.805   0.237  0.0000  0.0000  0.0000
10219OM     OM110219   2.725   5.044   0.165  0.0000  0.0000  0.0000
10220OM     OM110220   4.019   5.630   1.023  0.0000  0.0000  0.0000
10221OM     OM110221   4.124   5.842   1.138  0.0000  0.0000  0.0000
10222OM     OM110222   3.966   5.687   1.278  0.0000  0.0000  0.0000
10223OM     OM110223   0.222   2.029   0.952  0.0000  0.0000  0.0000
10224OM     OM110224   9.565   4.558   0.028  0.0000  0.0000  0.0000
10225OM     OM110225   3.557   7.815   8.928  0.0000  0.0000  0.0000
10226OM     OM110226   3.532   7.568   8.858  0.0000  0.0000  0.0000
10227OM     OM110227   3.343   7.738   8.796  0.0000  0.0000  0.0000
10228OM     OM110228   2.358   3.537   9.001  0.0000  0.0000  0.0000
10229OM     OM110229   0.441   2.307   8.490  0.0000  0.0000  0.0000
10230OM     OM110230   9.518   4.364   8.451  0.0000  0.0000  0.0000
10231OM     OM110231   1.353   8.439   8.680  0.0000  0.0000  0.0000
10232OM     OM110232   2.372   4.080   9.023  0.0000  0.0000  0.0000
10233OM     OM110233   2.571   3.977   9.153  0.0000  0.0000  0.0000
10234OM     OM110234   1.871   8.897   0.025  0.0000  0.0000  0.0000
10235OM     OM110235   1.658   9.039   0.063  0.0000  0.0000  0.0000
10236OM     OM110236   6.265   6.955   0.559  0.0000  0.0000  0.0000
10237OM     OM110237   6.219   7.204   0.503  0.0000  0.0000  0.0000
10238OM     OM110238   0.478   4.820   8.360  0.0000  0.0000  0.0000
10239OM     OM110239   0.402   5.056   8.403  0.0000  0.0000  0.0000
10240OM     OM110240   9.354   7.102   9.025  0.0000  0.0000  0.0000
10241OM     OM110241   9.297   7.251   8.817  0.0000  0.0000  0.0000
10242OM     OM110242   7.819   3.923   9.577  0.0000  0.0000  0.0000
10243OM     OM110243   7.794   4.098   9.381  0.0000  0.0000  0.0000
10244OM     OM110244   8.584   3.004   0.438  0.0000  0.0000  0.0000
10245OM     OM110245   4.142   2.686   9.318  0.0000  0.0000  0.0000
10246OM     OM110246   7.837   7.873   9.347  0.0000  0.0000  0.0000
10247OM     OM110247   3.196   6.378   9.007  0.0000  0.0000  0.0000
10248OM     OM110248   4.710   6.310   9.220  0.0000  0.0000  0.0000
10249OM     OM110249   4.882   6.104   9.157  0.0000  0.0000  0.0000
10250OM     OM110250   3.963   0.850   0.690  0.0000  0.0000  0.0000
10251OM     OM110251   7.406   4.133   9.540  0.0000  0.0000  0.0000
10252OM     OM110252   7.546   4.156   9.319  0.0000  0.0000  0.0000
10253OM     OM110253   1.520   4.027   9.000  0.0000  0.0000  0.0000
10254OM     OM110254   1.642   4.200   9.145  0.0000  0.0000  0.0000
10255OM     OM110255   1.252   1.962   8.952  0.0000  0.0000  0.0000
10256OM     OM110256   5.974   2.922   0.623  0.0000  0.0000  0.0000
10257OM     OM110257   6.128   2.958   0.413  0.0000  0.0000  0.0000
10258OM     OM110258   8.751   0.760   8.607  0.0000  0.0000  0.0000
10259OM     OM110259   8.353   0.604   8.591  0.0000  0.0000  0.0000
10260OM     OM110260   4.819   8.214   9.289  0.0000  0.0000  0.0000
10261OM     OM110261   4.639   8.406   9.354  0.0000  0.0000  0.0000
10262OM     OM110262   9.540   0.629   0.845  0.0000  0.0000  0.0000
10263OM     OM110263   8.289   2.383   0.457  0.0000  0.0000  0.0000
10264OM     OM110264   8.045   2.481   0.510  0.0000  0.0000  0.0000
10265OM     OM110265   4.243   7.766   8.649  0.0000  0.0000  0.0000
10266OM     OM110266   1.937   3.519   0.332  0.0000  0.0000  0.0000
10267OM     OM110267   1.976   3.762   0.423  0.0000  0.0000  0.0000
10268OM     OM110268   6.262   4.380   8.812  0.0000  0.0000  0.0000
10269OM     OM110269   6.329   4.513   9.026  0.0000  0.0000  0.0000
10270OM     OM110270   4.138   2.634   1.269  0.0000  0.0000  0.0000
10271OM     OM110271   4.102   2.652   1.011  0.0000  0.0000  0.0000
10272OM     OM110272   8.086   9.070   8.861  0.0000  0.0000  0.0000
10273OM     OM110273   7.737   9.182   8.969  0.0000  0.0000  0.0000
10274OM     OM110274   8.023   5.286   1.221  0.0000  0.0000  0.0000
10275OM     OM110275   8.276   5.295   0.842  0.0000  0.0000  0.0000
10276OM     OM110276   2.120   2.773   8.393  0.0000  0.0000  0.0000
10277OM     OM110277   2.332   2.541   0.627  0.0000  0.0000  0.0000
10278OM     OM110278   2.212   2.412   0.423  0.0000  0.0000  0.0000
10279OM     OM110279   3.209   8.341   9.530  0.0000  0.0000  0.0000
10280OM     OM110280   3.132   8.578   9.584  0.0000  0.0000  0.0000
10281OM     OM110281   4.416   8.790   9.158  0.0000  0.0000  0.0000
10282OM     OM110282   9.457   5.627   8.628  0.0000  0.0000  0.0000
10283OM     OM110283   9.545   5.567   8.863  0.0000  0.0000  0.0000
10284OM     OM110284   2.440   6.768   0.917  0.0000  0.0000  0.0000
10285OM     OM110285   1.405   3.401   0.845  0.0000  0.0000  0.0000
10286OM     OM110286   0.800   3.442   8.366  0.0000  0.0000  0.0000
10287OM     OM110287   0.578   6.074   9.125  0.0000  0.0000  0.0000
10288OM     OM110288   4.336   3.587   8.988  0.0000  0.0000  0.0000
10289OM     OM110289   5.789   2.640   9.124  0.0000  0.0000  0.0000
10290OM     OM110290   5.751   2.982   8.747  0.0000  0.0000  0.0000
10291OM     OM110291   1.464   8.733   8.556  0.0000  0.0000  0.0000
10292OM     OM110292   9.533   5.987   0.543  0.0000  0.0000  0.0000
10293OM     OM110293   8.941   4.725   9.258  0.0000  0.0000  0.0000
10294OM     OM110294   8.740   4.859   9.161  0.0000  0.0000  0.0000
10295OM     OM110295   1.492   4.661   0.108  0.0000  0.0000  0.0000
10296OM     OM110296   1.683   8.943   1.302  0.0000  0.0000  0.0000
10297OM     OM110297   3.082   8.918   9.281  0.0000  0.0000  0.0000
10298OM     OM110298   2.994   8.717   9.416  0.0000  0.0000  0.0000
10299OM     OM110299   8.042   4.610   8.948  0.0000  0.0000  0.0000
10300OM     OM110300   2.503   4.779   9.446  0.0000  0.0000  0.0000
10301OM     OM110301   2.635   4.871   9.239  0.0000  0.0000  0.0000
10302OM     OM110302   2.717   4.762   9.601  0.0000  0.0000  0.0000
10303OM     OM110303   0.878   1.293   8.561  0.0000  0.0000  0.0000
10304OM     OM110304   1.553   2.886   9.373  0.0000  0.0000  0.0000
10305OM     OM110305   0.746   0.480   9.476  0.0000  0.0000  0.0000
10306OM     OM110306   5.414   2.130   1.288  0.0000  0.0000  0.0000
10307OM     OM110307   5.201   1.998   1.335  0.0000  0.0000  0.0000
10308OM     OM110308   2.045   5.582   0.733  0.0000  0.0000  0.0000
10309OM     OM110309   2.878   8.529   9.542  0.0000  0.0000  0.0000
10310OM     OM110310   2.990   8.360   9.390  0.0000  0.0000  0.0000
10311OM     OM110311   0.644   7.108   0.943  0.0000  0.0000  0.0000
10312OM     OM110312   0.638   7.020   1.204  0.0000  0.0000  0.0000
10313OM     OM110313   7.665   7.080   0.036  0.0000  0.0000  0.0000
10314OM     OM110314   9.419   2.031   1.264  0.0000  0.0000  0.0000
10315OM     OM110315   5.758   6.774   0.866  0.0000  0.0000  0.0000
10316OM     OM110316   5.890   6.578   0.928  0.0000  0.0000  0.0000
10317OM     OM110317   7.018   5.607   1.087  0.0000  0.0000  0.0000
10318OM     OM110318   4.386   8.669   0.555  0.0000  0.0000  0.0000
10319OM     OM110319   4.255   8.595   0.760  0.0000  0.0000  0.0000
10320OM     OM110320   4.195   8.495   0.530  0.0000  0.0000  0.0000
10321OM     OM110321   4.805   3.588   0.548  0.0000  0.0000  0.0000
10322OM     OM110322   4.839   3.337   0.629  0.0000  0.0000  0.0000
10323OM     OM110323   4.663   8.837   9.157  0.0000  0.0000  0.0000
10324OM     OM110324   1.409   8.321   0.514  0.0000  0.0000  0.0000
10325OM     OM110325   1.364   3.861   9.138  0.0000  0.0000  0.0000
10326OM     OM110326   1.302   3.942   8.905  0.0000  0.0000  0.0000
10327OM     OM110327   0.063   5.606   9.084  0.0000  0.0000  0.0000
10328OM     OM110328   4.531   2.674   9.006  0.0000  0.0000  0.0000
10329OM     OM110329   2.585   4.172   8.146  0.0000  0.0000  0.0000
10330OM     OM110330   4.106   3.643   1.278  0.0000  0.0000  0.0000
10331OM     OM110331   3.747   4.061   9.537  0.0000  0.0000  0.0000
10332OM     OM110332   3.970   4.129   0.049  0.0000  0.0000  0.0000
10333OM     OM110333   2.278   2.514   8.938  0.0000  0.0000  0.0000
10334OM     OM110334   8.813   6.521   0.537  0.0000  0.0000  0.0000
10335OM     OM110335   9.019   6.422   0.411  0.0000  0.0000  0.0000
10336OM     OM110336   0.682   8.363   0.557  0.0000  0.0000  0.0000
10337OM     OM110337   0.651   8.655   1.032  0.0000  0.0000  0.0000
10338OM     OM110338   0.451   8.795   0.952  0.0000  0.0000  0.0000
10339OM     OM110339   8.931   8.926   0.371  0.0000  0.0000  0.0000
10340OM     OM110340   8.697   8.943   0.495  0.0000  0.0000  0.0000
10341OM     OM110341   2.116   7.391   8.875  0.0000  0.0000  0.0000
10342OM     OM110342   0.450   0.660   0.849  0.0000  0.0000  0.0000
10343OM     OM110343   0.439   0.435   0.717  0.0000  0.0000  0.0000
10344OM     OM110344   8.847   8.210   8.919  0.0000  0.0000  0.0000
10345OM     OM110345   9.032   8.186   9.099  0.0000  0.0000  0.0000
10346OM     OM110346   7.974   0.652   0.742  0.0000  0.0000  0.0000
10347OM     OM110347   4.097   7.621   8.815  0.0000  0.0000  0.0000
10348OM     OM110348   2.088   7.570   0.496  0.0000  0.0000  0.0000
10349OM     OM110349   7.941   8.354   8.821  0.0000  0.0000  0.0000
10350OM     OM110350   6.028   4.503   0.849  0.0000  0.0000  0.0000
10351OM     OM110351   4.535   8.311   9.558  0.0000  0.0000  0.0000
10352OM     OM110352   4.525   8.224   0.189  0.0000  0.0000  0.0000
10353OM     OM110353   4.578   8.051   9.601  0.0000  0.0000  0.0000
10354OM     OM110354   1.730   7.238   0.038  0.0000  0.0000  0.0000
10355OM     OM110355   1.502   4.782   1.250  0.0000  0.0000  0.0000
10356OM     OM110356   2.950   8.598   8.410  0.0000  0.0000  0.0000
10357OM     OM110357   0.887   0.924   8.336  0.0000  0.0000  0.0000
10358OM     OM110358   5.067   1.490   8.688  0.0000  0.0000  0.0000
10359OM     OM110359   4.858   1.459   8.533  0.0000  0.0000  0.0000
10360OM     OM110360   3.437   0.426   8.762  0.0000  0.0000  0.0000
10361OM     OM110361   3.397   0.634   8.931  0.0000  0.0000  0.0000
10362OM     OM110362   3.487   0.389   9.007  0.0000  0.0000  0.0000
10363OM     OM110363   5.521   6.722   0.656  0.0000  0.0000  0.0000
10364OM     OM110364   5.304   6.632   0.760  0.0000  0.0000  0.0000
10365OM     OM110365   5.388   6.867   0.827  0.0000  0.0000  0.0000
10366OM     OM110366   3.211   5.315   0.649  0.0000  0.0000  0.0000
10367OM     OM110367   3.046   5.474   0.775  0.0000  0.0000  0.0000
10368OM     OM110368   4.311   3.035   8.826  0.0000  0.0000  0.0000
10369OM     OM110369   4.130   3.054   8.647  0.0000  0.0000  0.0000
10370OM     OM110370   5.345   6.910   8.552  0.0000  0.0000  0.0000
10371OM     OM110371   5.506   7.110   8.505  0.0000  0.0000  0.0000
10372OM     OM110372   0.962   2.364   0.358  0.0000  0.0000  0.0000
10373OM     OM110373   0.824   2.530   0.510  0.0000  0.0000  0.0000
10374OM     OM110374   0.722   2.441   0.287  0.0000  0.0000  0.0000
10375OM     OM110375   0.927   2.610   0.283  0.0000  0.0000  0.0000
10376OM     OM110376   0.020   2.947   8.563  0.0000  0.0000  0.0000
10377OM     OM110377   5.299   7.810   0.324  0.0000  0.0000  0.0000
10378OM     OM110378   0.647   7.596   9.056  0.0000  0.0000  0.0000
10379OM     OM110379   0.800   7.633   9.268  0.0000  0.0000  0.0000
10380OM     OM110380   0.550   7.682   9.293  0.0000  0.0000  0.0000
10381OM     OM110381   6.378   0.734   9.057  0.0000  0.0000  0.0000
10382OM     OM110382   6.590   0.589   9.030  0.0000  0.0000  0.0000
10383OM     OM110383   6.661   5.948   0.239  0.0000  0.0000  0.0000
10384OM     OM110384   4.315   1.214   9.511  0.0000  0.0000  0.0000
10385OM     OM110385   2.738   4.229   8.338  0.0000  0.0000  0.0000
10386OM     OM110386   2.801   4.098   8.558  0.0000  0.0000  0.0000
10387OM     OM110387   5.503   7.243   0.552  0.0000  0.0000  0.0000
10388OM     OM110388   5.536   7.049   0.726  0.0000  0.0000  0.0000
10389OM     OM110389   2.949   2.860   0.016  0.0000  0.0000  0.0000
10390OM     OM110390   3.072   2.777   0.219  0.0000  0.0000  0.0000
10391OM     OM110391   5.347   3.656   9.355  0.0000  0.0000  0.0000
10392OM     OM110392   1.688   5.591   9.234  0.0000  0.0000  0.0000
10393OM     OM110393   1.869   5.572   9.063  0.0000  0.0000  0.0000
10394OM     OM110394   1.627   5.481   9.007  0.0000  0.0000  0.0000
10395OM     OM110395   6.411   5.861   9.345  0.0000  0.0000  0.0000
10396OM     OM110396   4.113   2.853   0.334  0.0000  0.0000  0.0000
10397OM     OM110397   4.793   9.297   8.126  0.0000  0.0000  0.0000
10398OM     OM110398   2.762   6.180   9.173  0.0000  0.0000  0.0000
10399OM     OM110399   1.565   6.175   0.454  0.0000  0.0000  0.0000
10400OM     OM110400   4.636   6.280   8.632  0.0000  0.0000  0.0000
10401OM     OM110401   6.437   2.538   0.154  0.0000  0.0000  0.0000
10402OM     OM110402   0.505   2.296   8.735  0.0000  0.0000  0.0000
10403OM     OM110403   6.109   5.995   8.953  0.0000  0.0000  0.0000
10404OM     OM110404   5.930   5.810   8.927  0.0000  0.0000  0.0000
10405OM     OM110405   0.356   7.332   0.761  0.0000  0.0000  0.0000
10406OM     OM110406   0.517   7.396   0.560  0.0000  0.0000  0.0000
10407OM     OM110407   7.285   7.254   0.934  0.0000  0.0000  0.0000
10408OM     OM110408   7.900   4.327   8.598  0.0000  0.0000  0.0000
10409OM     OM110409   5.431   6.248   8.428  0.0000  0.0000  0.0000
10410OM     OM110410   3.985   1.085   0.809  0.0000  0.0000  0.0000
10411OM     OM110411   4.084   0.572   8.545  0.0000  0.0000  0.0000
10412OM     OM110412   3.523   4.066   0.662  0.0000  0.0000  0.0000
10413OM     OM110413   3.208   3.554   1.283  0.0000  0.0000  0.0000
10414OM     OM110414   3.152   3.315   1.297  0.0000  0.0000  0.0000
10415OM     OM110415   3.870   1.020   1.036  0.0000  0.0000  0.0000
10416OM     OM110416   1.558   6.348   8.630  0.0000  0.0000  0.0000
10417OM     OM110417   1.364   6.530   8.628  0.0000  0.0000  0.0000
10418OM     OM110418   3.981   2.547   0.794  0.0000  0.0000  0.0000
10419OM     OM110419   7.874   4.584   8.553  0.0000  0.0000  0.0000
10420OM     OM110420   7.872   4.483   8.803  0.0000  0.0000  0.0000
10421OM     OM110421   3.262   4.437   9.202  0.0000  0.0000  0.0000
10422OM     OM110422   4.868   6.429   0.835  0.0000  0.0000  0.0000
10423OM     OM110423   0.668   6.981   0.736  0.0000  0.0000  0.0000
10424OM     OM110424   2.239   9.074   8.518  0.0000  0.0000  0.0000
10425OM     OM110425   4.985   3.693   8.409  0.0000  0.0000  0.0000
10426OM     OM110426   2.876   5.766   0.284  0.0000  0.0000  0.0000
10427OM     OM110427   1.200   8.664   8.493  0.0000  0.0000  0.0000
10428OM     OM110428   3.471   1.134   0.161  0.0000  0.0000  0.0000
10429OM     OM110429   3.452   1.026   9.526  0.0000  0.0000  0.0000
10430OM     OM110430   9.258   8.325   9.116  0.0000  0.0000  0.0000
10431OM     OM110431   9.263   8.076   9.033  0.0000  0.0000  0.0000
10432OM     OM110432   3.090   6.615   1.009  0.0000  0.0000  0.0000
10433OM     OM110433   8.230   0.740   8.276  0.0000  0.0000  0.0000
10434OM     OM110434   5.361   3.875   0.198  0.0000  0.0000  0.0000
10435OM     OM110435   6.326   3.279   8.565  0.0000  0.0000  0.0000
10436OM     OM110436   6.185   3.481   8.535  0.0000  0.0000  0.0000
10437OM     OM110437   8.504   5.913   1.302  0.0000  0.0000  0.0000
10438OM     OM110438   8.409   5.875   1.059  0.0000  0.0000  0.0000
10439OM     OM110439   8.268   6.005   1.237  0.0000  0.0000  0.0000
10440OM     OM110440   8.319   5.739   1.264  0.0000  0.0000  0.0000
10441OM     OM110441   5.913   7.978   8.369  0.0000  0.0000  0.0000
10442OM     OM110442   5.716   8.153   8.444  0.0000  0.0000  0.0000
10443OM     OM110443   3.927   6.467   0.858  0.0000  0.0000  0.0000
10444OM     OM110444   2.327   2.715   9.094  0.0000  0.0000  0.0000
10445OM     OM110445   2.501   2.876   9.195  0.0000  0.0000  0.0000
10446OM     OM110446   7.670   9.398   0.855  0.0000  0.0000  0.0000
10447OM     OM110447   2.202   1.571   9.316  0.0000  0.0000  0.0000
10448OM     OM110448   1.038   2.751   8.610  0.0000  0.0000  0.0000
10449OM     OM110449   3.483   0.020   0.885  0.0000  0.0000  0.0000
10450OM     OM110450   3.544   9.415   1.037  0.0000  0.0000  0.0000
10451OM     OM110451   6.851   4.715   0.490  0.0000  0.0000  0.0000
10452OM     OM110452   7.089   4.806   0.586  0.0000  0.0000  0.0000
10453OM     OM110453   7.004   4.554   0.607  0.0000  0.0000  0.0000
10454OM     OM110454   6.773   3.261   0.348  0.0000  0.0000  0.0000
10455OM     OM110455   6.632   3.317   0.129  0.0000  0.0000  0.0000
10456OM     OM110456   0.474   8.134   0.211  0.0000  0.0000  0.0000
10457OM     OM110457   2.154   6.528   8.381  0.0000  0.0000  0.0000
10458OM     OM110458   5.471   2.740   0.148  0.0000  0.0000  0.0000
10459OM     OM110459   5.318   2.780   9.394  0.0000  0.0000  0.0000
10460OM     OM110460   4.214   1.749   0.593  0.0000  0.0000  0.0000
10461OM     OM110461   8.191   6.413   8.472  0.0000  0.0000  0.0000
10462OM     OM110462   8.450   6.463   8.432  0.0000  0.0000  0.0000
10463OM     OM110463   6.308   3.824   1.354  0.0000  0.0000  0.0000
10464OM     OM110464   3.069   1.739   0.630  0.0000  0.0000  0.0000
10465OM     OM110465   4.270   1.559   9.102  0.0000  0.0000  0.0000
10466OM     OM110466   2.861   6.352   8.737  0.0000  0.0000  0.0000
10467OM     OM110467   2.902   6.582   8.622  0.0000  0.0000  0.0000
10468OM     OM110468   8.447   5.678   0.896  0.0000  0.0000  0.0000
10469OM     OM110469   2.864   3.834   0.140  0.0000  0.0000  0.0000
10470OM     OM110470   1.559   7.046   8.604  0.0000  0.0000  0.0000
10471OM     OM110471   4.769   2.621   0.512  0.0000  0.0000  0.0000
10472OM     OM110472   4.526   2.659   0.452  0.0000  0.0000  0.0000
10473OM     OM110473   7.672   0.941   8.820  0.0000  0.0000  0.0000
10474OM     OM110474   7.878   1.100   8.800  0.0000  0.0000  0.0000
10475OM     OM110475   0.942   4.295   1.331  0.0000  0.0000  0.0000
10476OM     OM110476   3.534   2.483   0.333  0.0000  0.0000  0.0000
10477OM     OM110477   4.410   1.841   0.995  0.0000  0.0000  0.0000
10478OM     OM110478   8.812   5.303   0.245  0.0000  0.0000  0.0000
10479OM     OM110479   5.574   0.376   8.571  0.0000  0.0000  0.0000
10480OM     OM110480   5.212   0.223   9.402  0.0000  0.0000  0.0000
10481OM     OM110481   5.295   0.298   9.156  0.0000  0.0000  0.0000
10482OM     OM110482   6.229   8.365   9.481  0.0000  0.0000  0.0000
10483OM     OM110483   2.820   0.048   0.235  0.0000  0.0000  0.0000
10484OM     OM110484   8.522   8.002   9.411  0.0000  0.0000  0.0000
10485OM     OM110485   7.352   7.045   0.796  0.0000  0.0000  0.0000
10486OM     OM110486   1.485   4.622   0.362  0.0000  0.0000  0.0000
10487OM     OM110487   5.192   4.836   8.704  0.0000  0.0000  0.0000
10488OM     OM110488   5.260   5.009   8.512  0.0000  0.0000  0.0000
10489OM     OM110489   5.850   2.134   9.223  0.0000  0.0000  0.0000
10490OM     OM110490   5.979   1.908   9.218  0.0000  0.0000  0.0000
10491OM     OM110491   7.821   4.424   1.105  0.0000  0.0000  0.0000
10492OM     OM110492   7.360   6.303   1.039  0.0000  0.0000  0.0000
10493OM     OM110493   0.560   4.338   9.286  0.0000  0.0000  0.0000
10494OM     OM110494   8.056   2.199   9.218  0.0000  0.0000  0.0000
10495OM     OM110495   7.334   3.867   1.167  0.0000  0.0000  0.0000
10496OM     OM110496   8.965   1.999   0.449  0.0000  0.0000  0.0000
10497OM     OM110497   7.273   2.006   0.780  0.0000  0.0000  0.0000
10498OM     OM110498   2.762   0.141   0.013  0.0000  0.0000  0.0000
10499OM     OM110499   3.534   1.361   0.055  0.0000  0.0000  0.0000
10500OM     OM110500   0.582   3.341   8.293  0.0000  0.0000  0.0000
10501OM     OM110501   8.874   0.179   0.232  0.0000  0.0000  0.0000
10502OM     OM110502   9.101   2.227   0.938  0.0000  0.0000  0.0000
10503OM     OM110503   8.906   2.178   0.753  0.0000  0.0000  0.0000
10504OM     OM110504   4.552   5.263   0.463  0.0000  0.0000  0.0000
10505OM     OM110505   9.062   2.686   0.748  0.0000  0.0000  0.0000
10506OM     OM110506   9.230   2.581   0.903  0.0000  0.0000  0.0000
10507OM     OM110507   4.762   3.102   0.738  0.0000  0.0000  0.0000
10508OM     OM110508   7.875   4.996   1.163  0.0000  0.0000  0.0000
10509OM     OM110509   1.714   6.253   0.089  0.0000  0.0000  0.0000
10510OM     OM110510   1.874   6.037   0.091  0.0000  0.0000  0.0000
10511OM     OM110511   1.871   6.198   9.490  0.0000  0.0000  0.0000
10512OM     OM110512   4.040   2.108   0.782  0.0000  0.0000  0.0000
10513OM     OM110513   3.179   3.125   1.109  0.0000  0.0000  0.0000
10514OM     OM110514   3.120   2.854   1.088  0.0000  0.0000  0.0000
10515OM     OM110515   6.298   2.759   1.106  0.0000  0.0000  0.0000
10516OM     OM110516   6.560   2.818   1.063  0.0000  0.0000  0.0000
10517OM     OM110517   6.365   7.928   0.964  0.0000  0.0000  0.0000
10518OM     OM110518   6.729   7.760   0.725  0.0000  0.0000  0.0000
10519OM     OM110519   6.716   0.795   9.115  0.0000  0.0000  0.0000
10520OM     OM110520   1.235   4.921   8.877  0.0000  0.0000  0.0000
10521OM     OM110521   7.555   0.501   9.036  0.0000  0.0000  0.0000
10522OM     OM110522   2.573   6.239   8.999  0.0000  0.0000  0.0000
10523OM     OM110523   2.813   6.182   8.919  0.0000  0.0000  0.0000
10524OM     OM110524   2.131   1.421   9.526  0.0000  0.0000  0.0000
10525OM     OM110525   2.376   1.422   9.436  0.0000  0.0000  0.0000
10526OM     OM110526   1.701   7.036   9.033  0.0000  0.0000  0.0000
10527OM     OM110527   0.718   2.407   0.716  0.0000  0.0000  0.0000
10528OM     OM110528   4.424   9.149   0.438  0.0000  0.0000  0.0000
10529OM     OM110529   6.412   8.544   9.515  0.0000  0.0000  0.0000
10530OM     OM110530   3.026   5.032   8.855  0.0000  0.0000  0.0000
10531OM     OM110531   4.282   0.372   0.865  0.0000  0.0000  0.0000
10532OM     OM110532   4.437   0.316   1.058  0.0000  0.0000  0.0000
10533OM     OM110533   5.024   8.539   1.060  0.0000  0.0000  0.0000
10534OM     OM110534   8.004   5.091   8.780  0.0000  0.0000  0.0000
10535OM     OM110535   8.157   5.307   8.789  0.0000  0.0000  0.0000
10536OM     OM110536   4.195   9.379   8.488  0.0000  0.0000  0.0000
10537OM     OM110537   4.668   1.544   8.679  0.0000  0.0000  0.0000
10538OM     OM110538   7.309   6.819   8.640  0.0000  0.0000  0.0000
10539OM     OM110539   6.125   0.810   9.081  0.0000  0.0000  0.0000
10540OM     OM110540   6.595   4.266   1.006  0.0000  0.0000  0.0000
10541OM     OM110541   1.795   2.875   9.272  0.0000  0.0000  0.0000
10542OM     OM110542   1.740   3.071   9.427  0.0000  0.0000  0.0000
10543OM     OM110543   3.335   8.673   0.780  0.0000  0.0000  0.0000
10544OM     OM110544   6.761   2.756   1.214  0.0000  0.0000  0.0000
10545OM     OM110545   7.378   0.269   8.403  0.0000  0.0000  0.0000
10546OM     OM110546   3.797   1.750   8.963  0.0000  0.0000  0.0000
10547OM     OM110547   3.767   2.014   8.976  0.0000  0.0000  0.0000
10548OM     OM110548   8.723   2.051   0.623  0.0000  0.0000  0.0000
10549OM     OM110549   8.021   6.222   8.414  0.0000  0.0000  0.0000
10550OM     OM110550   9.005   8.921   1.265  0.0000  0.0000  0.0000
10551OM     OM110551   9.204   9.107   1.291  0.0000  0.0000  0.0000
10552OM     OM110552   9.008   9.137   1.122  0.0000  0.0000  0.0000
10553OM     OM110553   6.225   4.125   0.392  0.0000  0.0000  0.0000
10554OM     OM110554   5.152   3.129   8.531  0.0000  0.0000  0.0000
10555OM     OM110555   5.360   3.135   8.403  0.0000  0.0000  0.0000
10556OM     OM110556   7.371   0.858   1.141  0.0000  0.0000  0.0000
10557OM     OM110557   7.524   0.794   0.938  0.0000  0.0000  0.0000
10558OM     OM110558   7.409   0.608   1.077  0.0000  0.0000  0.0000
10559OM     OM110559   0.385   7.671   9.503  0.0000  0.0000  0.0000
10560OM     OM110560   1.555   0.159   8.300  0.0000  0.0000  0.0000
10561OM     OM110561   1.702   0.366   8.349  0.0000  0.0000  0.0000
10562OM     OM110562   4.486   4.375   9.119  0.0000  0.0000  0.0000
10563OM     OM110563   4.705   4.423   8.988  0.0000  0.0000  0.0000
10564OM     OM110564   4.711   4.270   9.203  0.0000  0.0000  0.0000
10565OM     OM110565   4.675   2.200   0.253  0.0000  0.0000  0.0000
10566OM     OM110566   1.992   8.398   8.892  0.0000  0.0000  0.0000
10567OM     OM110567   3.205   2.507   1.219  0.0000  0.0000  0.0000
10568OM     OM110568   2.493   3.750   9.061  0.0000  0.0000  0.0000
10569OM     OM110569   4.094   6.653   8.340  0.0000  0.0000  0.0000
10570OM     OM110570   3.832   6.606   8.350  0.0000  0.0000  0.0000
10571OM     OM110571   9.475   4.046   9.305  0.0000  0.0000  0.0000
10572OM     OM110572   4.990   8.769   1.201  0.0000  0.0000  0.0000
10573OM     OM110573   9.435   2.372   8.813  0.0000  0.0000  0.0000
10574OM     OM110574   9.279   2.380   1.045  0.0000  0.0000  0.0000
10575OM     OM110575   5.751   6.996   9.185  0.0000  0.0000  0.0000
10576OM     OM110576   5.659   6.836   9.367  0.0000  0.0000  0.0000
10577OM     OM110577   5.847   7.014   9.423  0.0000  0.0000  0.0000
10578OM     OM110578   0.163   4.507   0.179  0.0000  0.0000  0.0000
10579OM     OM110579   0.720   7.804   1.177  0.0000  0.0000  0.0000
10580OM     OM110580   0.598   7.875   0.949  0.0000  0.0000  0.0000
10581OM     OM110581   2.385   5.985   1.262  0.0000  0.0000  0.0000
10582OM     OM110582   2.191   5.831   1.321  0.0000  0.0000  0.0000
10583OM     OM110583   9.216   2.165   1.178  0.0000  0.0000  0.0000
10584OM     OM110584   9.603   0.575   0.575  0.0000  0.0000  0.0000
10585OM     OM110585   0.096   0.441   0.777  0.0000  0.0000  0.0000
10586OM     OM110586   6.146   6.606   1.013  0.0000  0.0000  0.0000
10587OM     OM110587   0.534   8.914   1.341  0.0000  0.0000  0.0000
10588OM     OM110588   6.097   4.264   8.645  0.0000  0.0000  0.0000
10589OM     OM110589   8.454   6.605   0.062  0.0000  0.0000  0.0000
10590OM     OM110590   9.278   5.274   0.767  0.0000  0.0000  0.0000
10591OM     OM110591   6.031   2.731   1.092  0.0000  0.0000  0.0000
10592OM     OM110592   6.410   1.319   1.294  0.0000  0.0000  0.0000
10593OM     OM110593   6.367   1.565   1.384  0.0000  0.0000  0.0000
10594OM     OM110594   3.181   2.977   9.588  0.0000  0.0000  0.0000
10595OM     OM110595   7.148   0.622   9.238  0.0000  0.0000  0.0000
10596OM     OM110596   3.199   5.213   8.823  0.0000  0.0000  0.0000
10597OM     OM110597   7.695   5.094   0.989  0.0000  0.0000  0.0000
10598OM     OM110598   8.652   5.501   0.289  0.0000  0.0000  0.0000
10599OM     OM110599   2.558   4.699   8.650  0.0000  0.0000  0.0000
10600OM     OM110600   9.051   0.754   0.170  0.0000  0.0000  0.0000
10601OM     OM110601   9.213   0.730   9.582  0.0000  0.0000  0.0000
10602OM     OM110602   2.231   7.561   0.948  0.0000  0.0000  0.0000
10603OM     OM110603   2.895   3.057   8.526  0.0000  0.0000  0.0000
10604OM     OM110604   3.031   3.211   8.700  0.0000  0.0000  0.0000
10605OM     OM110605   1.279   6.763   9.072  0.0000  0.0000  0.0000
10606OM     OM110606   9.052   5.859   0.883  0.0000  0.0000  0.0000
10607OM     OM110607   5.607   8.372   8.372  0.0000  0.0000  0.0000
10608OM     OM110608   5.633   2.590   8.722  0.0000  0.0000  0.0000
10609OM     OM110609   5.402   2.700   8.696  0.0000  0.0000  0.0000
10610OM     OM110610   5.769   2.761   1.042  0.0000  0.0000  0.0000
10611OM     OM110611   5.866   2.559   1.190  0.0000  0.0000  0.0000
10612OM     OM110612   0.039   0.264   0.954  0.0000  0.0000  0.0000
10613OM     OM110613   0.281   0.286   0.854  0.0000  0.0000  0.0000
10614OM     OM110614   6.276   3.023   0.200  0.0000  0.0000  0.0000
10615OM     OM110615   8.276   5.513   9.334  0.0000  0.0000  0.0000
10616OM     OM110616   4.880   8.929   9.068  0.0000  0.0000  0.0000
10617OM     OM110617   6.821   6.455   0.535  0.0000  0.0000  0.0000
10618OM     OM110618   6.721   6.478   0.766  0.0000  0.0000  0.0000
10619OM     OM110619   9.346   8.440   9.329  0.0000  0.0000  0.0000
10620OM     OM110620   3.931   5.565   0.056  0.0000  0.0000  0.0000
10621OM     OM110621   4.057   5.673   0.266  0.0000  0.0000  0.0000
10622OM     OM110622   6.343   6.162   1.063  0.0000  0.0000  0.0000
10623OM     OM110623   6.959   3.238   8.945  0.0000  0.0000  0.0000
10624OM     OM110624   6.761   3.404   8.961  0.0000  0.0000  0.0000
10625OM     OM110625   7.025   5.544   8.574  0.0000  0.0000  0.0000
10626OM     OM110626   7.114   5.698   8.195  0.0000  0.0000  0.0000
10627OM     OM110627   0.549   0.902   0.887  0.0000  0.0000  0.0000
10628OM     OM110628   1.411   1.346   0.621  0.0000  0.0000  0.0000
10629OM     OM110629   1.410   1.719   0.971  0.0000  0.0000  0.0000
10630OM     OM110630   1.542   1.772   0.757  0.0000  0.0000  0.0000
10631OM     OM110631   0.279   4.899   9.511  0.0000  0.0000  0.0000
10632OM     OM110632   3.144   6.638   1.270  0.0000  0.0000  0.0000
10633OM     OM110633   7.905   7.507   0.195  0.0000  0.0000  0.0000
10634OM     OM110634   0.332   0.805   1.004  0.0000  0.0000  0.0000
10635OM     OM110635   7.010   4.573   8.769  0.0000  0.0000  0.0000
10636OM     OM110636   6.945   4.380   8.919  0.0000  0.0000  0.0000
10637OM     OM110637   6.036   4.783   0.306  0.0000  0.0000  0.0000
10638OM     OM110638   0.441   3.240   8.860  0.0000  0.0000  0.0000
10639OM     OM110639   5.363   7.758   0.092  0.0000  0.0000  0.0000
10640OM     OM110640   5.459   7.591   9.524  0.0000  0.0000  0.0000
10641OM     OM110641   5.586   7.818   9.556  0.0000  0.0000  0.0000
10642OM     OM110642   5.359   7.822   9.449  0.0000  0.0000  0.0000
10643OM     OM110643   3.980   9.437   0.842  0.0000  0.0000  0.0000
10644OM     OM110644   2.717   3.714   0.897  0.0000  0.0000  0.0000
10645OM     OM110645   7.515   9.085   9.060  0.0000  0.0000  0.0000
10646OM     OM110646   7.336   8.881   9.060  0.0000  0.0000  0.0000
10647OM     OM110647   6.762   3.215   9.131  0.0000  0.0000  0.0000
10648OM     OM110648   0.371   3.027   0.843  0.0000  0.0000  0.0000
10649OM     OM110649   2.147   2.570   8.554  0.0000  0.0000  0.0000
10650OM     OM110650   7.985   3.475   9.319  0.0000  0.0000  0.0000
10651OM     OM110651   2.258   8.679   0.329  0.0000  0.0000  0.0000
10652OM     OM110652   2.050   8.539   0.218  0.0000  0.0000  0.0000
10653OM     OM110653   8.338   1.604   8.588  0.0000  0.0000  0.0000
10654OM     OM110654   3.112   3.200   8.957  0.0000  0.0000  0.0000
10655OM     OM110655   4.943   5.207   8.769  0.0000  0.0000  0.0000
10656OM     OM110656   4.818   5.088   8.580  0.0000  0.0000  0.0000
10657OM     OM110657   4.964   4.947   8.763  0.0000  0.0000  0.0000
10658OM     OM110658   7.121   6.767   8.472  0.0000  0.0000  0.0000
10659OM     OM110659   4.698   3.357   8.764  0.0000  0.0000  0.0000
10660OM     OM110660   0.903   7.943   8.990  0.0000  0.0000  0.0000
10661OM     OM110661   0.710   7.830   9.146  0.0000  0.0000  0.0000
10662OM     OM110662   6.312   6.435   1.079  0.0000  0.0000  0.0000
10663OM     OM110663   4.365   1.908   0.741  0.0000  0.0000  0.0000
10664OM     OM110664   4.587   2.569   9.227  0.0000  0.0000  0.0000
10665OM     OM110665   2.425   6.064   9.089  0.0000  0.0000  0.0000
10666OM     OM110666   1.310   7.541   8.735  0.0000  0.0000  0.0000
10667OM     OM110667   5.734   5.659   8.867  0.0000  0.0000  0.0000
10668OM     OM110668   4.908   5.655   0.437  0.0000  0.0000  0.0000
10669OM     OM110669   8.634   5.114   0.944  0.0000  0.0000  0.0000
10670OM     OM110670   8.752   5.067   1.182  0.0000  0.0000  0.0000
10671OM     OM110671   8.619   5.274   1.170  0.0000  0.0000  0.0000
10672OM     OM110672   3.181   1.142   0.428  0.0000  0.0000  0.0000
10673OM     OM110673   7.155   9.538   9.235  0.0000  0.0000  0.0000
10674OM     OM110674   1.026   4.138   8.486  0.0000  0.0000  0.0000
10675OM     OM110675   3.294   6.321   8.775  0.0000  0.0000  0.0000
10676OM     OM110676   3.747   2.136   0.128  0.0000  0.0000  0.0000
10677OM     OM110677   1.159   6.642   8.768  0.0000  0.0000  0.0000
10678OM     OM110678   8.111   7.221   1.098  0.0000  0.0000  0.0000
10679OM     OM110679   7.975   7.442   1.072  0.0000  0.0000  0.0000
10680OM     OM110680   5.350   5.463   0.456  0.0000  0.0000  0.0000
10681OM     OM110681   5.510   6.628   9.446  0.0000  0.0000  0.0000
10682OM     OM110682   8.537   1.264   9.079  0.0000  0.0000  0.0000
10683OM     OM110683   1.860   4.225   0.472  0.0000  0.0000  0.0000
10684OM     OM110684   7.148   2.936   8.697  0.0000  0.0000  0.0000
10685OM     OM110685   5.385   6.916   1.194  0.0000  0.0000  0.0000
10686OM     OM110686   5.377   6.682   1.303  0.0000  0.0000  0.0000
10687OM     OM110687   9.404   7.636   8.667  0.0000  0.0000  0.0000
10688OM     OM110688   4.659   7.982   1.014  0.0000  0.0000  0.0000
10689OM     OM110689   4.566   7.870   0.775  0.0000  0.0000  0.0000
10690OM     OM110690   4.652   7.730   0.964  0.0000  0.0000  0.0000
10691OM     OM110691   6.187   0.994   0.238  0.0000  0.0000  0.0000
10692OM     OM110692   6.457   7.186   9.000  0.0000  0.0000  0.0000
10693OM     OM110693   6.646   7.354   8.994  0.0000  0.0000  0.0000
10694OM     OM110694   5.314   6.035   8.326  0.0000  0.0000  0.0000
10695OM     OM110695   4.991   0.189   0.538  0.0000  0.0000  0.0000
10696OM     OM110696   4.473   1.307   0.084  0.0000  0.0000  0.0000
10697OM     OM110697   2.480   5.452   0.176  0.0000  0.0000  0.0000
10698OM     OM110698   5.287   3.030   9.329  0.0000  0.0000  0.0000
10699OM     OM110699   1.380   7.397   0.311  0.0000  0.0000  0.0000
10700OM     OM110700   1.510   7.350   0.090  0.0000  0.0000  0.0000
10701OM     OM110701   4.455   8.580   8.327  0.0000  0.0000  0.0000
10702OM     OM110702   7.719   7.658   9.428  0.0000  0.0000  0.0000
10703OM     OM110703   4.559   3.133   8.824  0.0000  0.0000  0.0000
10704OM     OM110704   0.479   1.597   9.520  0.0000  0.0000  0.0000
10705OM     OM110705   5.327   0.792   1.382  0.0000  0.0000  0.0000
10706OM     OM110706   1.688   3.168   0.048  0.0000  0.0000  0.0000
10707OM     OM110707   6.177   2.167   9.532  0.0000  0.0000  0.0000
10708OM     OM110708   6.132   2.029   0.137  0.0000  0.0000  0.0000
10709OM     OM110709   8.404   6.073   8.931  0.0000  0.0000  0.0000
10710OM     OM110710   3.395   7.445   1.076  0.0000  0.0000  0.0000
10711OM     OM110711   3.368   7.423   1.335  0.0000  0.0000  0.0000
10712OM     OM110712   0.116   8.783   9.590  0.0000  0.0000  0.0000
10713OM     OM110713   0.004   8.559   9.515  0.0000  0.0000  0.0000
10714OM     OM110714   1.113   1.956   0.914  0.0000  0.0000  0.0000
10715OM     OM110715   1.188   2.041   0.668  0.0000  0.0000  0.0000
10716OM     OM110716   7.911   3.625   9.108  0.0000  0.0000  0.0000
10717OM     OM110717   8.572   3.603   9.237  0.0000  0.0000  0.0000
10718OM     OM110718   3.533   1.308   8.719  0.0000  0.0000  0.0000
10719OM     OM110719   1.110   7.051   0.380  0.0000  0.0000  0.0000
10720OM     OM110720   4.498   2.332   9.327  0.0000  0.0000  0.0000
10721OM     OM110721   7.598   7.084   0.285  0.0000  0.0000  0.0000
10722OM     OM110722   4.019   5.436   0.669  0.0000  0.0000  0.0000
10723OM     OM110723   4.099   5.643   0.520  0.0000  0.0000  0.0000
10724OM     OM110724   2.122   2.729   8.939  0.0000  0.0000  0.0000
10725OM     OM110725   2.007   2.772   9.168  0.0000  0.0000  0.0000
10726OM     OM110726   8.435   9.405   9.299  0.0000  0.0000  0.0000
10727OM     OM110727   6.589   9.053   0.515  0.0000  0.0000  0.0000
10728OM     OM110728   6.265   8.820   0.494  0.0000  0.0000  0.0000
10729OM     OM110729   3.342   4.027   0.483  0.0000  0.0000  0.0000
10730OM     OM110730   3.017   3.085   9.165  0.0000  0.0000  0.0000
10731OM     OM110731   1.156   5.551   0.852  0.0000  0.0000  0.0000
10732OM     OM110732   2.069   7.275   9.097  0.0000  0.0000  0.0000
10733OM     OM110733   7.906   9.407   0.962  0.0000  0.0000  0.0000
10734OM     OM110734   7.981   9.545   0.752  0.0000  0.0000  0.0000
10735OM     OM110735   0.525   7.228   9.318  0.0000  0.0000  0.0000
10736OM     OM110736   4.725   0.791   8.391  0.0000  0.0000  0.0000
10737OM     OM110737   2.210   2.422   0.817  0.0000  0.0000  0.0000
10738OM     OM110738   2.288   1.963   0.663  0.0000  0.0000  0.0000
10739OM     OM110739   2.387   8.536   9.542  0.0000  0.0000  0.0000
10740OM     OM110740   2.170   5.876   8.679  0.0000  0.0000  0.0000
10741OM     OM110741   3.071   6.477   8.799  0.0000  0.0000  0.0000
10742OM     OM110742   9.068   5.659   1.060  0.0000  0.0000  0.0000
10743OM     OM110743   8.857   5.563   1.175  0.0000  0.0000  0.0000
10744OM     OM110744   6.515   3.538   1.021  0.0000  0.0000  0.0000
10745OM     OM110745   7.737   7.468   9.601  0.0000  0.0000  0.0000
10746OM     OM110746   7.710   7.301   0.183  0.0000  0.0000  0.0000
10747OM     OM110747   7.014   7.064   1.213  0.0000  0.0000  0.0000
10748OM     OM110748   2.950   8.744   0.072  0.0000  0.0000  0.0000
10749OM     OM110749   5.433   2.964   9.535  0.0000  0.0000  0.0000
10750OM     OM110750   5.689   4.640   9.394  0.0000  0.0000  0.0000
10751OM     OM110751   8.839   8.225   0.291  0.0000  0.0000  0.0000
10752OM     OM110752   5.526   3.505   1.063  0.0000  0.0000  0.0000
10753OM     OM110753   9.570   1.124   8.963  0.0000  0.0000  0.0000
10754OM     OM110754   9.569   1.018   9.189  0.0000  0.0000  0.0000
10755OM     OM110755   7.174   7.893   0.998  0.0000  0.0000  0.0000
10756OM     OM110756   2.877   8.151   1.219  0.0000  0.0000  0.0000
10757OM     OM110757   2.633   8.199   1.142  0.0000  0.0000  0.0000
10758OM     OM110758   5.140   4.255   1.202  0.0000  0.0000  0.0000
10759OM     OM110759   7.375   3.162   8.497  0.0000  0.0000  0.0000
10760OM     OM110760   5.006   6.234   0.719  0.0000  0.0000  0.0000
10761OM     OM110761   5.948   4.529   9.375  0.0000  0.0000  0.0000
10762OM     OM110762   8.213   2.166   8.910  0.0000  0.0000  0.0000
10763OM     OM110763   3.920   5.815   0.435  0.0000  0.0000  0.0000
10764OM     OM110764   0.562   9.604   8.432  0.0000  0.0000  0.0000
10765OM     OM110765   0.607   0.086   8.684  0.0000  0.0000  0.0000
10766OM     OM110766   0.698   0.216   8.468  0.0000  0.0000  0.0000
10767OM     OM110767   3.370   0.369   0.263  0.0000  0.0000  0.0000
10768OM     OM110768   6.530   8.127   0.938  0.0000  0.0000  0.0000
10769OM     OM110769   3.560   0.519   0.363  0.0000  0.0000  0.0000
10770OM     OM110770   5.030   5.453   8.754  0.0000  0.0000  0.0000
10771OM     OM110771   7.228   1.329   0.437  0.0000  0.0000  0.0000
10772OM     OM110772   2.294   4.869   0.516  0.0000  0.0000  0.0000
10773OM     OM110773   0.111   7.380   0.814  0.0000  0.0000  0.0000
10774OM     OM110774   9.057   7.272   0.956  0.0000  0.0000  0.0000
10775OM     OM110775   2.941   1.538   0.416  0.0000  0.0000  0.0000
10776OM     OM110776   4.478   7.624   1.144  0.0000  0.0000  0.0000
10777OM     OM110777   4.695   7.498   1.076  0.0000  0.0000  0.0000
10778OM     OM110778   6.616   8.621   9.368  0.0000  0.0000  0.0000
10779OM     OM110779   6.304   6.160   8.956  0.0000  0.0000  0.0000
10780OM     OM110780   6.389   6.083   9.190  0.0000  0.0000  0.0000
10781OM     OM110781   0.164   2.653   0.689  0.0000  0.0000  0.0000
10782OM     OM110782   0.144   5.814   9.218  0.0000  0.0000  0.0000
10783OM     OM110783   0.254   5.763   8.989  0.0000  0.0000  0.0000
10784OM     OM110784   8.737   6.884   1.173  0.0000  0.0000  0.0000
10785OM     OM110785   5.776   3.480   0.969  0.0000  0.0000  0.0000
10786OM     OM110786   5.697   3.390   1.207  0.0000  0.0000  0.0000
10787OM     OM110787   0.158   5.791   9.477  0.0000  0.0000  0.0000
10788OM     OM110788   3.899   7.206   0.553  0.0000  0.0000  0.0000
10789OM     OM110789   0.485   5.882   8.961  0.0000  0.0000  0.0000
10790OM     OM110790   9.582   0.768   1.360  0.0000  0.0000  0.0000
10791OM     OM110791   4.337   3.746   9.197  0.0000  0.0000  0.0000
10792OM     OM110792   5.588   5.854   0.582  0.0000  0.0000  0.0000
10793OM     OM110793   5.480   6.081   0.613  0.0000  0.0000  0.0000
10794OM     OM110794   6.028   7.346   0.418  0.0000  0.0000  0.0000
10795OM     OM110795   1.368   7.100   1.296  0.0000  0.0000  0.0000
10796OM     OM110796   1.741   6.317   0.333  0.0000  0.0000  0.0000
10797OM     OM110797   2.246   0.301   9.346  0.0000  0.0000  0.0000
10798OM     OM110798   2.109   0.538   9.348  0.0000  0.0000  0.0000
10799OM     OM110799   7.388   6.215   0.217  0.0000  0.0000  0.0000
10800OM     OM110800   0.458   2.530   8.630  0.0000  0.0000  0.0000
10801OM     OM110801   0.354   2.702   8.472  0.0000  0.0000  0.0000
10802OM     OM110802   2.872   5.555   8.309  0.0000  0.0000  0.0000
10803OM     OM110803   4.099   9.234   0.074  0.0000  0.0000  0.0000
10804OM     OM110804   0.331   9.475   1.101  0.0000  0.0000  0.0000
10805OM     OM110805   9.200   5.599   9.551  0.0000  0.0000  0.0000
10806OM     OM110806   9.340   4.635   0.865  0.0000  0.0000  0.0000
10807OM     OM110807   7.095   5.496   8.818  0.0000  0.0000  0.0000
10808OM     OM110808   4.777   6.381   8.434  0.0000  0.0000  0.0000
10809OM     OM110809   7.399   0.503   8.827  0.0000  0.0000  0.0000
10810OM     OM110810   7.560   0.704   8.875  0.0000  0.0000  0.0000
10811OM     OM110811   1.333   2.625   0.998  0.0000  0.0000  0.0000
10812OM     OM110812   0.887   2.662   8.805  0.0000  0.0000  0.0000
10813OM     OM110813   0.947   5.571   8.545  0.0000  0.0000  0.0000
10814OM     OM110814   6.150   7.953   8.472  0.0000  0.0000  0.0000
10815OM     OM110815   8.280   0.502   8.372  0.0000  0.0000  0.0000
10816OM     OM110816   1.336   3.315   8.725  0.0000  0.0000  0.0000
10817OM     OM110817   8.269   2.634   8.766  0.0000  0.0000  0.0000
10818OM     OM110818   8.194   2.395   8.796  0.0000  0.0000  0.0000
10819OM     OM110819   8.154   6.685   8.730  0.0000  0.0000  0.0000
10820OM     OM110820   1.132   8.560   8.712  0.0000  0.0000  0.0000
10821OM     OM110821   2.030   8.703   8.212  0.0000  0.0000  0.0000
10822OM     OM110822   2.129   8.865   8.404  0.0000  0.0000  0.0000
10823OM     OM110823   6.554   3.943   0.725  0.0000  0.0000  0.0000
10824OM     OM110824   6.551   3.685   0.808  0.0000  0.0000  0.0000
10825OM     OM110825   5.374   0.456   8.721  0.0000  0.0000  0.0000
10826OM     OM110826   4.664   0.943   0.807  0.0000  0.0000  0.0000
10827OM     OM110827   0.714   5.698   8.540  0.0000  0.0000  0.0000
10828OM     OM110828   3.128   5.526   8.311  0.0000  0.0000  0.0000
10829OM     OM110829   4.148   7.107   1.172  0.0000  0.0000  0.0000
10830OM     OM110830   8.159   2.776   9.602  0.0000  0.0000  0.0000
10831OM     OM110831   8.546   6.465   8.669  0.0000  0.0000  0.0000
10832OM     OM110832   5.938   3.655   0.866  0.0000  0.0000  0.0000
10833OM     OM110833   8.058   4.360   1.032  0.0000  0.0000  0.0000
10834OM     OM110834   3.755   5.823   8.713  0.0000  0.0000  0.0000
10835OM     OM110835   3.838   5.809   8.959  0.0000  0.0000  0.0000
10836OM     OM110836   6.070   3.254   8.503  0.0000  0.0000  0.0000
10837OM     OM110837   5.820   3.180   8.529  0.0000  0.0000  0.0000
10838OM     OM110838   4.692   9.520   8.565  0.0000  0.0000  0.0000
10839OM     OM110839   4.617   9.506   8.916  0.0000  0.0000  0.0000
10840OM     OM110840   8.350   8.635   1.182  0.0000  0.0000  0.0000
10841OM     OM110841   8.200   8.769   1.347  0.0000  0.0000  0.0000
10842OM     OM110842   4.557   2.197   0.482  0.0000  0.0000  0.0000
10843OM     OM110843   4.724   2.368   0.594  0.0000  0.0000  0.0000
10844OM     OM110844   6.261   2.207   9.287  0.0000  0.0000  0.0000
10845OM     OM110845   5.156   1.394   0.242  0.0000  0.0000  0.0000
10846OM     OM110846   5.334   1.507   0.399  0.0000  0.0000  0.0000
10847OM     OM110847   2.543   9.399   9.449  0.0000  0.0000  0.0000
10848OM     OM110848   3.375   7.604   0.880  0.0000  0.0000  0.0000
10849OM     OM110849   4.944   0.101   0.787  0.0000  0.0000  0.0000
10850OM     OM110850   3.779   5.216   9.403  0.0000  0.0000  0.0000
10851OM     OM110851   3.740   5.402   9.583  0.0000  0.0000  0.0000
10852OM     OM110852   6.986   6.576   8.349  0.0000  0.0000  0.0000
10853OM     OM110853   4.642   7.743   0.561  0.0000  0.0000  0.0000
10854OM     OM110854   3.911   6.212   9.207  0.0000  0.0000  0.0000
10855OM     OM110855   8.751   3.893   0.966  0.0000  0.0000  0.0000
10856OM     OM110856   0.717   4.536   0.933  0.0000  0.0000  0.0000
10857OM     OM110857   0.790   4.421   1.154  0.0000  0.0000  0.0000
10858OM     OM110858   4.223   0.509   8.343  0.0000  0.0000  0.0000
10859OM     OM110859   9.366   1.111   0.280  0.0000  0.0000  0.0000
10860OM     OM110860   2.596   4.987   9.561  0.0000  0.0000  0.0000
10861OM     OM110861   2.495   4.791   0.107  0.0000  0.0000  0.0000
10862OM     OM110862   5.426   3.435   8.749  0.0000  0.0000  0.0000
10863OM     OM110863   5.270   6.563   9.371  0.0000  0.0000  0.0000
10864OM     OM110864   3.008   0.357   1.224  0.0000  0.0000  0.0000
10865OM     OM110865   0.799   8.775   9.298  0.0000  0.0000  0.0000
10866OM     OM110866   0.381   6.282   1.257  0.0000  0.0000  0.0000
10867OM     OM110867   3.135   0.128   1.183  0.0000  0.0000  0.0000
10868OM     OM110868   4.264   9.439   1.281  0.0000  0.0000  0.0000
10869OM     OM110869   4.511   9.348   1.341  0.0000  0.0000  0.0000
10870OM     OM110870   7.840   8.306   8.584  0.0000  0.0000  0.0000
10871OM     OM110871   7.794   5.118   8.931  0.0000  0.0000  0.0000
10872OM     OM110872   7.790   4.695   8.912  0.0000  0.0000  0.0000
10873OM     OM110873   8.709   5.761   1.267  0.0000  0.0000  0.0000
10874OM     OM110874   8.693   5.995   1.154  0.0000  0.0000  0.0000
10875OM     OM110875   9.072   7.457   0.758  0.0000  0.0000  0.0000
10876OM     OM110876   9.432   7.376   8.651  0.0000  0.0000  0.0000
10877OM     OM110877   5.598   3.076   0.108  0.0000  0.0000  0.0000
10878OM     OM110878   7.173   5.017   0.248  0.0000  0.0000  0.0000
10879OM     OM110879   7.265   4.966   0.493  0.0000  0.0000  0.0000
10880OM     OM110880   0.559   2.281   0.142  0.0000  0.0000  0.0000
10881OM     OM110881   8.801   3.561   0.515  0.0000  0.0000  0.0000
10882OM     OM110882   8.032   5.655   0.361  0.0000  0.0000  0.0000
10883OM     OM110883   5.291   6.899   0.323  0.0000  0.0000  0.0000
10884OM     OM110884   4.887   7.048   0.328  0.0000  0.0000  0.0000
10885OM     OM110885   5.311   7.078   0.508  0.0000  0.0000  0.0000
10886OM     OM110886   3.483   1.547   8.631  0.0000  0.0000  0.0000
10887OM     OM110887   0.935   7.662   1.182  0.0000  0.0000  0.0000
10888OM     OM110888   2.564   3.760   1.115  0.0000  0.0000  0.0000
10889OM     OM110889   9.362   6.996   9.268  0.0000  0.0000  0.0000
10890OM     OM110890   3.409   4.968   0.445  0.0000  0.0000  0.0000
10891OM     OM110891   9.281   6.503   8.453  0.0000  0.0000  0.0000
10892OM     OM110892   1.494   5.268   9.018  0.0000  0.0000  0.0000
10893OM     OM110893   1.381   5.040   9.059  0.0000  0.0000  0.0000
10894OM     OM110894   1.530   5.144   9.249  0.0000  0.0000  0.0000
10895OM     OM110895   2.479   4.753   0.375  0.0000  0.0000  0.0000
10896OM     OM110896   3.416   7.474   8.652  0.0000  0.0000  0.0000
10897OM     OM110897   1.436   2.006   9.575  0.0000  0.0000  0.0000
10898OM     OM110898   7.771   8.082   8.499  0.0000  0.0000  0.0000
10899OM     OM110899   8.042   8.161   8.554  0.0000  0.0000  0.0000
10900OM     OM110900   0.817   8.566   9.147  0.0000  0.0000  0.0000
10901OM     OM110901   3.943   6.429   9.097  0.0000  0.0000  0.0000
10902OM     OM110902   4.250   6.772   8.178  0.0000  0.0000  0.0000
10903OM     OM110903   8.806   4.148   0.964  0.0000  0.0000  0.0000
10904OM     OM110904   6.769   9.244   0.652  0.0000  0.0000  0.0000
10905OM     OM110905   6.709   9.211   0.902  0.0000  0.0000  0.0000
10906OM     OM110906   7.088   3.797   8.411  0.0000  0.0000  0.0000
10907OM     OM110907   3.002   3.954   8.478  0.0000  0.0000  0.0000
10908OM     OM110908   6.923   4.399   0.403  0.0000  0.0000  0.0000
10909OM     OM110909   7.461   6.341   9.127  0.0000  0.0000  0.0000
10910OM     OM110910   7.516   6.292   8.873  0.0000  0.0000  0.0000
10911OM     OM110911   8.402   6.219   1.276  0.0000  0.0000  0.0000
10912OM     OM110912   3.283   9.582   1.038  0.0000  0.0000  0.0000
10913OM     OM110913   9.501   4.052   1.069  0.0000  0.0000  0.0000
10914OM     OM110914   9.535   6.810   9.338  0.0000  0.0000  0.0000
10915OM     OM110915   9.044   1.256   8.739  0.0000  0.0000  0.0000
10916OM     OM110916   5.943   3.794   1.097  0.0000  0.0000  0.0000
10917OM     OM110917   1.433   1.125   0.231  0.0000  0.0000  0.0000
10918OM     OM110918   7.484   4.975   0.881  0.0000  0.0000  0.0000
10919OM     OM110919   1.762   6.770   0.062  0.0000  0.0000  0.0000
10920OM     OM110920   9.297   4.217   1.062  0.0000  0.0000  0.0000
10921OM     OM110921   5.323   8.394   9.082  0.0000  0.0000  0.0000
10922OM     OM110922   5.369   8.592   9.251  0.0000  0.0000  0.0000
10923OM     OM110923   5.488   0.998   1.353  0.0000  0.0000  0.0000
10924OM     OM110924   6.195   4.551   9.254  0.0000  0.0000  0.0000
10925OM     OM110925   0.145   3.078   8.747  0.0000  0.0000  0.0000
10926OM     OM110926   3.627   6.705   8.456  0.0000  0.0000  0.0000
10927OM     OM110927   7.052   4.292   0.597  0.0000  0.0000  0.0000
10928OM     OM110928   3.617   6.865   8.664  0.0000  0.0000  0.0000
10929OM     OM110929   3.752   7.069   8.594  0.0000  0.0000  0.0000
10930OM     OM110930   2.387   8.641   9.304  0.0000  0.0000  0.0000
10931OM     OM110931   8.657   6.726   0.593  0.0000  0.0000  0.0000
10932OM     OM110932   7.440   9.303   1.132  0.0000  0.0000  0.0000
10933OM     OM110933   4.680   5.136   0.272  0.0000  0.0000  0.0000
10934OM     OM110934   8.017   1.392   0.576  0.0000  0.0000  0.0000
10935OM     OM110935   5.451   6.389   9.398  0.0000  0.0000  0.0000
10936OM     OM110936   1.105   2.167   0.451  0.0000  0.0000  0.0000
10937OM     OM110937   8.332   9.548   9.493  0.0000  0.0000  0.0000
10938OM     OM110938   6.434   1.375   0.718  0.0000  0.0000  0.0000
10939OM     OM110939   7.277   2.997   0.912  0.0000  0.0000  0.0000
10940OM     OM110940   9.447   7.725   1.242  0.0000  0.0000  0.0000
10941OM     OM110941   8.979   8.883   8.865  0.0000  0.0000  0.0000
10942OM     OM110942   2.078   6.284   8.427  0.0000  0.0000  0.0000
10943OM     OM110943   5.896   2.589   8.690  0.0000  0.0000  0.0000
10944OM     OM110944   5.890   2.720   8.464  0.0000  0.0000  0.0000
10945OM     OM110945   1.398   2.771   1.202  0.0000  0.0000  0.0000
10946OM     OM110946   1.571   7.973   0.886  0.0000  0.0000  0.0000
10947OM     OM110947   1.776   2.415   0.947  0.0000  0.0000  0.0000
10948OM     OM110948   5.745   2.409   8.584  0.0000  0.0000  0.0000
10949OM     OM110949   1.885   1.992   8.217  0.0000  0.0000  0.0000
10950OM     OM110950   1.681   1.853   8.289  0.0000  0.0000  0.0000
10951OM     OM110951   2.807   5.148   9.550  0.0000  0.0000  0.0000
10952OM     OM110952   2.584   5.235   0.051  0.0000  0.0000  0.0000
10953OM     OM110953   2.230   7.492   0.697  0.0000  0.0000  0.0000
10954OM     OM110954   5.925   1.246   8.549  0.0000  0.0000  0.0000
10955OM     OM110955   8.412   8.098   9.196  0.0000  0.0000  0.0000
10956OM     OM110956   6.862   1.571   0.640  0.0000  0.0000  0.0000
10957OM     OM110957   4.200   7.004   1.414  0.0000  0.0000  0.0000
10958OM     OM110958   2.731   8.591   0.824  0.0000  0.0000  0.0000
10959OM     OM110959   3.908   7.479   8.699  0.0000  0.0000  0.0000
10960OM     OM110960   3.827   7.307   8.524  0.0000  0.0000  0.0000
10961OM     OM110961   3.659   7.398   8.706  0.0000  0.0000  0.0000
10962OM     OM110962   2.803   7.857   8.702  0.0000  0.0000  0.0000
10963OM     OM110963   6.181   4.480   9.495  0.0000  0.0000  0.0000
10964OM     OM110964   8.238   7.020   1.004  0.0000  0.0000  0.0000
10965OM     OM110965   8.336   7.251   0.963  0.0000  0.0000  0.0000
10966OM     OM110966   8.954   1.074   8.903  0.0000  0.0000  0.0000
10967OM     OM110967   3.144   3.854   0.419  0.0000  0.0000  0.0000
10968OM     OM110968   9.533   4.752   0.728  0.0000  0.0000  0.0000
10969OM     OM110969   6.748   3.545   0.901  0.0000  0.0000  0.0000
10970OM     OM110970   5.685   6.009   0.967  0.0000  0.0000  0.0000
10971OM     OM110971   5.490   7.045   0.991  0.0000  0.0000  0.0000
10972OM     OM110972   8.970   8.140   0.811  0.0000  0.0000  0.0000
10973OM     OM110973   5.545   1.229   8.865  0.0000  0.0000  0.0000
10974OM     OM110974   5.338   0.928   8.487  0.0000  0.0000  0.0000
10975OM     OM110975   2.275   4.733   0.225  0.0000  0.0000  0.0000
10976OM     OM110976   6.420   1.143   1.103  0.0000  0.0000  0.0000
10977OM     OM110977   1.873   6.699   0.287  0.0000  0.0000  0.0000
10978OM     OM110978   1.747   6.514   0.150  0.0000  0.0000  0.0000
10979OM     OM110979   8.050   2.344   9.015  0.0000  0.0000  0.0000
10980OM     OM110980   7.796   6.865   0.912  0.0000  0.0000  0.0000
10981OM     OM110981   8.038   6.930   0.855  0.0000  0.0000  0.0000
10982OM     OM110982   2.961   5.541   1.006  0.0000  0.0000  0.0000
10983OM     OM110983   8.386   6.789   0.231  0.0000  0.0000  0.0000
10984OM     OM110984   8.532   7.000   0.201  0.0000  0.0000  0.0000
10985OM     OM110985   8.506   6.894   0.440  0.0000  0.0000  0.0000
10986OM     OM110986   7.497   8.390   0.149  0.0000  0.0000  0.0000
10987OM     OM110987   6.620   6.004   9.287  0.0000  0.0000  0.0000
10988OM     OM110988   8.619   5.511   1.270  0.0000  0.0000  0.0000
10989OM     OM110989   6.679   1.439   0.782  0.0000  0.0000  0.0000
10990OM     OM110990   4.719   5.165   9.455  0.0000  0.0000  0.0000
10991OM     OM110991   6.391   1.818   1.331  0.0000  0.0000  0.0000
10992OM     OM110992   4.169   2.003   0.588  0.0000  0.0000  0.0000
10993OM     OM110993   2.447   1.871   0.483  0.0000  0.0000  0.0000
10994OM     OM110994   6.737   9.207   0.388  0.0000  0.0000  0.0000
10995OM     OM110995   4.189   4.607   8.335  0.0000  0.0000  0.0000
10996OM     OM110996   2.330   3.233   8.688  0.0000  0.0000  0.0000
10997OM     OM110997   2.946   3.695   0.334  0.0000  0.0000  0.0000
10998OM     OM110998   0.703   7.115   9.462  0.0000  0.0000  0.0000
10999OM     OM110999   6.995   7.016   0.019  0.0000  0.0000  0.0000
11000OM     OM111000   6.829   6.846   0.164  0.0000  0.0000  0.0000
11001OM     OM111001   5.937   3.366   9.498  0.0000  0.0000  0.0000
11002OM     OM111002   5.798   3.142   9.547  0.0000  0.0000  0.0000
11003OM     OM111003   3.026   1.545   1.246  0.0000  0.0000  0.0000
11004OM     OM111004   2.890   1.634   1.037  0.0000  0.0000  0.0000
11005OM     OM111005   8.380   5.442   8.785  0.0000  0.0000  0.0000
11006OM     OM111006   3.228   7.966   8.780  0.0000  0.0000  0.0000
11007OM     OM111007   5.063   8.979   8.374  0.0000  0.0000  0.0000
11008OM     OM111008   5.275   8.825   8.340  0.0000  0.0000  0.0000
11009OM     OM111009   5.839   2.295   1.220  0.0000  0.0000  0.0000
11010OM     OM111010   2.926   6.091   8.700  0.0000  0.0000  0.0000
11011OM     OM111011   4.939   5.150   0.002  0.0000  0.0000  0.0000
11012OM     OM111012   8.235   3.963   0.522  0.0000  0.0000  0.0000
11013OM     OM111013   7.064   4.370   0.834  0.0000  0.0000  0.0000
11014OM     OM111014   7.715   6.879   1.158  0.0000  0.0000  0.0000
11015OM     OM111015   0.052   2.279   8.909  0.0000  0.0000  0.0000
11016OM     OM111016   4.394   7.806   0.582  0.0000  0.0000  0.0000
11017OM     OM111017   2.299   8.871   9.373  0.0000  0.0000  0.0000
11018OM     OM111018   6.382   0.210   9.017  0.0000  0.0000  0.0000
11019OM     OM111019   6.151   0.207   9.142  0.0000  0.0000  0.0000
11020OM     OM111020   3.021   2.976   9.397  0.0000  0.0000  0.0000
11021OM     OM111021   3.130   2.747   9.466  0.0000  0.0000  0.0000
11022OM     OM111022   4.369   8.670   0.972  0.0000  0.0000  0.0000
11023OM     OM111023   5.130   6.444   0.798  0.0000  0.0000  0.0000
11024OM     OM111024   0.803   1.805   8.919  0.0000  0.0000  0.0000
11025OM     OM111025   0.766   1.652   8.706  0.0000  0.0000  0.0000
11026OM     OM111026   7.736   8.291   0.180  0.0000  0.0000  0.0000
11027OM     OM111027   6.191   1.967   9.363  0.0000  0.0000  0.0000
11028OM     OM111028   4.462   8.899   0.437  0.0000  0.0000  0.0000
11029OM     OM111029   2.200   6.585   1.163  0.0000  0.0000  0.0000
11030OM     OM111030   2.205   6.800   1.013  0.0000  0.0000  0.0000
11031OM     OM111031   2.667   9.511   0.053  0.0000  0.0000  0.0000
11032OM     OM111032   3.905   5.476   1.413  0.0000  0.0000  0.0000
11033OM     OM111033   8.438   4.120   0.430  0.0000  0.0000  0.0000
11034OM     OM111034   3.802   4.635   9.508  0.0000  0.0000  0.0000
11035OM     OM111035   7.289   4.867   0.744  0.0000  0.0000  0.0000
11036OM     OM111036   4.345   6.047   0.691  0.0000  0.0000  0.0000
11037OM     OM111037   6.407   6.932   0.782  0.0000  0.0000  0.0000
11038OM     OM111038   7.697   9.599   9.531  0.0000  0.0000  0.0000
11039OM     OM111039   2.675   8.398   0.991  0.0000  0.0000  0.0000
11040OM     OM111040   7.646   5.943   0.869  0.0000  0.0000  0.0000
11041OM     OM111041   4.139   4.947   1.031  0.0000  0.0000  0.0000
11042OM     OM111042   4.116   4.794   1.234  0.0000  0.0000  0.0000
11043OM     OM111043   6.797   5.453   1.141  0.0000  0.0000  0.0000
11044OM     OM111044   3.559   7.254   1.286  0.0000  0.0000  0.0000
11045OM     OM111045   0.862   1.545   8.489  0.0000  0.0000  0.0000
11046OM     OM111046   9.180   8.623   9.406  0.0000  0.0000  0.0000
11047OM     OM111047   9.359   8.527   9.574  0.0000  0.0000  0.0000
11048OM     OM111048   7.668   7.411   9.347  0.0000  0.0000  0.0000
11049OM     OM111049   2.687   4.374   1.164  0.0000  0.0000  0.0000
11050OM     OM111050   7.237   6.027   0.121  0.0000  0.0000  0.0000
11051OM     OM111051   6.466   4.055   0.494  0.0000  0.0000  0.0000
11052OM     OM111052   5.579   2.297   1.197  0.0000  0.0000  0.0000
11053OM     OM111053   5.290   5.507   0.710  0.0000  0.0000  0.0000
11054OM     OM111054   5.162   7.919   0.117  0.0000  0.0000  0.0000
11055OM     OM111055   4.959   7.842   9.573  0.0000  0.0000  0.0000
11056OM     OM111056   0.236   2.860   0.543  0.0000  0.0000  0.0000
11057OM     OM111057   1.698   1.762   0.559  0.0000  0.0000  0.0000
11058OM     OM111058   6.397   2.804   0.123  0.0000  0.0000  0.0000
11059OM     OM111059   7.894   5.398   1.018  0.0000  0.0000  0.0000
11060OM     OM111060   5.916   6.385   9.458  0.0000  0.0000  0.0000
11061OM     OM111061   5.790   6.170   9.549  0.0000  0.0000  0.0000
11062OM     OM111062   3.198   4.908   8.398  0.0000  0.0000  0.0000
11063OM     OM111063   4.077   7.116   0.376  0.0000  0.0000  0.0000
11064OM     OM111064   8.353   1.769   0.697  0.0000  0.0000  0.0000
11065OM     OM111065   9.142   0.695   9.339  0.0000  0.0000  0.0000
11066OM     OM111066   6.554   1.233   0.898  0.0000  0.0000  0.0000
11067OM     OM111067   1.745   3.334   9.456  0.0000  0.0000  0.0000
11068OM     OM111068   1.046   7.727   9.268  0.0000  0.0000  0.0000
11069OM     OM111069   6.715   2.522   1.305  0.0000  0.0000  0.0000
11070OM     OM111070   1.916   0.796   1.051  0.0000  0.0000  0.0000
11071OM     OM111071   1.064   5.373   0.208  0.0000  0.0000  0.0000
11072OM     OM111072   4.944   5.093   0.251  0.0000  0.0000  0.0000
11073OM     OM111073   4.806   5.044   0.472  0.0000  0.0000  0.0000
11074OM     OM111074   8.487   8.592   9.054  0.0000  0.0000  0.0000
11075OM     OM111075   3.962   0.496   8.328  0.0000  0.0000  0.0000
11076OM     OM111076   8.169   9.534   0.566  0.0000  0.0000  0.0000
11077OM     OM111077   5.603   4.094   0.804  0.0000  0.0000  0.0000
11078OM     OM111078   4.003   5.132   8.476  0.0000  0.0000  0.0000
11079OM     OM111079   1.100   5.369   0.461  0.0000  0.0000  0.0000
11080OM     OM111080   1.312   5.418   0.327  0.0000  0.0000  0.0000
11081OM     OM111081   0.777   0.388   8.300  0.0000  0.0000  0.0000
11082OM     OM111082   7.230   0.506   9.021  0.0000  0.0000  0.0000
11083OM     OM111083   3.927   1.924   0.633  0.0000  0.0000  0.0000
11084OM     OM111084   0.818   7.065   8.692  0.0000  0.0000  0.0000
11085OM     OM111085   6.619   1.930   8.715  0.0000  0.0000  0.0000
11086OM     OM111086   0.409   7.858   0.758  0.0000  0.0000  0.0000
11087OM     OM111087   1.650   0.270   9.600  0.0000  0.0000  0.0000
11088OM     OM111088   3.764   5.635   9.458  0.0000  0.0000  0.0000
11089OM     OM111089   0.991   6.892   0.195  0.0000  0.0000  0.0000
11090OM     OM111090   1.240   6.964   0.180  0.0000  0.0000  0.0000
11091OM     OM111091   7.520   1.997   0.870  0.0000  0.0000  0.0000
11092OM     OM111092   7.545   9.522   1.250  0.0000  0.0000  0.0000
11093OM     OM111093   3.827   6.363   9.567  0.0000  0.0000  0.0000
11094OM     OM111094   4.261   4.376   9.249  0.0000  0.0000  0.0000
11095OM     OM111095   0.919   7.895   1.048  0.0000  0.0000  0.0000
11096OM     OM111096   6.828   3.083   0.527  0.0000  0.0000  0.0000
11097OM     OM111097   0.956   7.894   1.298  0.0000  0.0000  0.0000
11098OM     OM111098   3.132   2.499   9.372  0.0000  0.0000  0.0000
11099OM     OM111099   8.474   4.087   0.173  0.0000  0.0000  0.0000
11100OM     OM111100   3.486   7.667   0.653  0.0000  0.0000  0.0000
11101OM     OM111101   5.434   4.901   0.767  0.0000  0.0000  0.0000
11102OM     OM111102   5.425   4.985   0.517  0.0000  0.0000  0.0000
11103OM     OM111103   7.638   3.197   0.319  0.0000  0.0000  0.0000
11104OM     OM111104   8.264   8.677   9.201  0.0000  0.0000  0.0000
11105OM     OM111105   4.576   9.300   1.099  0.0000  0.0000  0.0000
11106OM     OM111106   9.580   4.969   8.718  0.0000  0.0000  0.0000
11107OM     OM111107   7.176   3.183   8.804  0.0000  0.0000  0.0000
11108OM     OM111108   9.518   8.343   0.052  0.0000  0.0000  0.0000
11109OM     OM111109   7.803   2.535   0.460  0.0000  0.0000  0.0000
11110OM     OM111110   3.863   4.827   1.174  0.0000  0.0000  0.0000
11111OM     OM111111   6.417   2.084   9.434  0.0000  0.0000  0.0000
11112OM     OM111112   1.929   3.174   9.582  0.0000  0.0000  0.0000
11113OM     OM111113   7.691   9.367   1.121  0.0000  0.0000  0.0000
11114OM     OM111114   2.548   1.620   9.445  0.0000  0.0000  0.0000
11115OM     OM111115   5.126   7.673   0.176  0.0000  0.0000  0.0000
11116OM     OM111116   2.437   4.282   1.162  0.0000  0.0000  0.0000
11117OM     OM111117   7.677   8.766   9.475  0.0000  0.0000  0.0000
11118OM     OM111118   0.084   1.738   9.449  0.0000  0.0000  0.0000
11119OM     OM111119   8.698   2.765   0.389  0.0000  0.0000  0.0000
11120OM     OM111120   5.270   4.907   0.325  0.0000  0.0000  0.0000
11121OM     OM111121   1.997   1.000   0.905  0.0000  0.0000  0.0000
11122OM     OM111122   4.702   7.820   9.590  0.0000  0.0000  0.0000
11123OM     OM111123   1.447   1.476   9.586  0.0000  0.0000  0.0000
11124OM     OM111124   5.425   4.782   1.004  0.0000  0.0000  0.0000
11125OM     OM111125   9.201   5.888   1.098  0.0000  0.0000  0.0000
11126OM     OM111126   6.160   3.685   8.712  0.0000  0.0000  0.0000
11127OM     OM111127   3.717   8.287   9.262  0.0000  0.0000  0.0000
11128OM     OM111128   2.847   7.807   0.953  0.0000  0.0000  0.0000
11129OM     OM111129   2.048   8.908   9.445  0.0000  0.0000  0.0000
11130OM     OM111130   0.560   7.093   8.679  0.0000  0.0000  0.0000
11131OM     OM111131   0.765   5.858   8.735  0.0000  0.0000  0.0000
11132OM     OM111132   0.735   5.949   8.971  0.0000  0.0000  0.0000
11133OM     OM111133   0.869   2.851   0.354  0.0000  0.0000  0.0000
11134OM     OM111134   8.159   1.617   0.598  0.0000  0.0000  0.0000
11135OM     OM111135   5.914   0.328   9.154  0.0000  0.0000  0.0000
11136OM     OM111136   4.314   1.383   8.916  0.0000  0.0000  0.0000
11137OM     OM111137   1.222   2.321   1.369  0.0000  0.0000  0.0000
11138OM     OM111138   8.555   4.458   8.136  0.0000  0.0000  0.0000
11139OM     OM111139   6.688   8.632   8.289  0.0000  0.0000  0.0000
11140OM     OM111140   6.200   6.068   1.300  0.0000  0.0000  0.0000
11141OM     OM111141   0.902   3.552   8.200  0.0000  0.0000  0.0000
11142OM     OM111142   0.294   5.456   1.394  0.0000  0.0000  0.0000
11143OM     OM111143   5.912   8.263   1.353  0.0000  0.0000  0.0000
11144OM     OM111144   8.061   1.816   8.307  0.0000  0.0000  0.0000
11145OM     OM111145   0.303   7.198   8.334  0.0000  0.0000  0.0000
11146OM     OM111146   9.119   0.359   8.188  0.0000  0.0000  0.0000
11147OM     OM111147   7.381   2.688   8.290  0.0000  0.0000  0.0000
11148OM     OM111148   2.950   8.382   1.298  0.0000  0.0000  0.0000
11149OM     OM111149   2.739   8.336   8.194  0.0000  0.0000  0.0000
11150OM     OM111150   3.340   7.778   1.252  0.0000  0.0000  0.0000
11151OM     OM111151   1.614   7.140   1.313  0.0000  0.0000  0.0000
11152OM     OM111152   6.262   1.142   8.343  0.0000  0.0000  0.0000
11153OM     OM111153   4.843   8.924   8.154  0.0000  0.0000  0.0000
11154OM     OM111154   7.303   1.964   1.237  0.0000  0.0000  0.0000
11155OM     OM111155   7.909   8.007   8.171  0.0000  0.0000  0.0000
11156OM     OM111156   7.788   4.964   8.437  0.0000  0.0000  0.0000
11157OM     OM111157   0.222   5.899   8.296  0.0000  0.0000  0.0000
11158OM     OM111158   0.832   2.524   1.330  0.0000  0.0000  0.0000
11159OM     OM111159   4.204   2.517   8.212  0.0000  0.0000  0.0000
11160OM     OM111160   6.446   8.236   8.383  0.0000  0.0000  0.0000
11161OM     OM111161   9.496   9.010   1.403  0.0000  0.0000  0.0000
11162OM     OM111162   9.378   7.568   1.381  0.0000  0.0000  0.0000
11163OM     OM111163   8.834   1.502   1.316  0.0000  0.0000  0.0000
11164OM     OM111164   0.764   8.446   1.241  0.0000  0.0000  0.0000
11165OM     OM111165   2.173   7.191   1.493  0.0000  0.0000  0.0000
11166OM     OM111166   5.382   0.317   8.353  0.0000  0.0000  0.0000
11167OM     OM111167   1.617   0.702   1.431  0.0000  0.0000  0.0000
11168OM     OM111168   1.751   1.612   1.406  0.0000  0.0000  0.0000
11169OM     OM111169   4.061   8.881   1.389  0.0000  0.0000  0.0000
11170OM     OM111170   4.967   3.434   1.304  0.0000  0.0000  0.0000
11171OM     OM111171   1.241   2.029   1.421  0.0000  0.0000  0.0000
11172OM     OM111172   1.717   5.593   8.173  0.0000  0.0000  0.0000
11173OM     OM111173   7.966   6.973   8.203  0.0000  0.0000  0.0000
11174OM     OM111174   6.681   9.323   8.416  0.0000  0.0000  0.0000
11175OM     OM111175   2.881   6.761   1.320  0.0000  0.0000  0.0000
11176OM     OM111176   6.394   6.644   1.357  0.0000  0.0000  0.0000
11177OM     OM111177   8.209   6.267   8.322  0.0000  0.0000  0.0000
11178OM     OM111178   6.335   2.714   8.249  0.0000  0.0000  0.0000
11179OM     OM111179   9.032   1.861   8.214  0.0000  0.0000  0.0000
11180OM     OM111180   1.910   2.973   8.158  0.0000  0.0000  0.0000
11181OM     OM111181   6.064   8.605   1.233  0.0000  0.0000  0.0000
11182OM     OM111182   5.632   2.405   8.180  0.0000  0.0000  0.0000
11183OM     OM111183   7.025   1.132   8.253  0.0000  0.0000  0.0000
11184OM     OM111184   4.092   3.403   8.391  0.0000  0.0000  0.0000
11185OM     OM111185   5.874   2.531   8.214  0.0000  0.0000  0.0000
11186OM     OM111186   3.085   2.819   8.358  0.0000  0.0000  0.0000
11187OM     OM111187   6.541   2.613   1.306  0.0000  0.0000  0.0000
11188OM     OM111188   3.452   0.389   8.235  0.0000  0.0000  0.0000
11189OM     OM111189   8.726   1.907   1.282  0.0000  0.0000  0.0000
11190OM     OM111190   1.068   1.198   1.306  0.0000  0.0000  0.0000
11191OM     OM111191   4.160   4.151   1.345  0.0000  0.0000  0.0000
11192OM     OM111192   2.614   7.293   8.374  0.0000  0.0000  0.0000
11193OM     OM111193   4.479   8.007   1.475  0.0000  0.0000  0.0000
11194OM     OM111194   4.061   1.280   8.288  0.0000  0.0000  0.0000
11195OM     OM111195   4.114   0.676   1.414  0.0000  0.0000  0.0000
11196OM     OM111196   6.505   3.979   8.232  0.0000  0.0000  0.0000
11197OM     OM111197   2.061   1.372   1.212  0.0000  0.0000  0.0000
11198OM     OM111198   7.662   7.527   8.198  0.0000  0.0000  0.0000
11199OM     OM111199   0.324   6.867   1.287  0.0000  0.0000  0.0000
11200OM     OM111200   1.863   3.882   8.384  0.0000  0.0000  0.0000
11201OM     OM111201   7.395   2.803   1.288  0.0000  0.0000  0.0000
11202OM     OM111202   8.702   4.982   8.312  0.0000  0.0000  0.0000
11203OM     OM111203   6.315   5.415   1.341  0.0000  0.0000  0.0000
11204OM     OM111204   4.008   3.921   8.357  0.0000  0.0000  0.0000
11205OM     OM111205   1.909   6.983   8.270  0.0000  0.0000  0.0000
11206OM     OM111206   1.377   4.109   1.428  0.0000  0.0000  0.0000
11207OM     OM111207   7.882   9.527   8.385  0.0000  0.0000  0.0000
11208OM     OM111208   3.213   2.212   1.373  0.0000  0.0000  0.0000
11209OM     OM111209   8.764   3.437   1.425  0.0000  0.0000  0.0000
11210OM     OM111210   7.842   2.157   1.299  0.0000  0.0000  0.0000
11211OM     OM111211   1.954   2.792   8.290  0.0000  0.0000  0.0000
11212OM     OM111212   3.467   3.571   1.440  0.0000  0.0000  0.0000
11213OM     OM111213   6.955   6.279   1.179  0.0000  0.0000  0.0000
11214OM     OM111214   6.076   9.345   8.423  0.0000  0.0000  0.0000
11215OM     OM111215   2.236   4.075   8.153  0.0000  0.0000  0.0000
11216OM     OM111216   7.963   4.650   1.382  0.0000  0.0000  0.0000
11217OM     OM111217   0.439   6.486   8.260  0.0000  0.0000  0.0000
11218OM     OM111218   5.591   1.826   1.351  0.0000  0.0000  0.0000
11219OM     OM111219   9.303   1.353   8.333  0.0000  0.0000  0.0000
11220OM     OM111220   4.671   6.330   8.239  0.0000  0.0000  0.0000
11221OM     OM111221   7.384   9.001   1.405  0.0000  0.0000  0.0000
11222OM     OM111222   0.431   0.940   8.209  0.0000  0.0000  0.0000
11223OM     OM111223   7.806   8.408   8.121  0.0000  0.0000  0.0000
11224OM     OM111224   9.239   5.858   8.422  0.0000  0.0000  0.0000
11225OM     OM111225   2.752   4.609   1.331  0.0000  0.0000  0.0000
11226OM     OM111226   2.841   7.572   1.194  0.0000  0.0000  0.0000
11227OM     OM111227   4.799   5.375   8.212  0.0000  0.0000  0.0000
11228OM     OM111228   4.632   0.817   8.230  0.0000  0.0000  0.0000
11229OM     OM111229   3.708   7.409   1.272  0.0000  0.0000  0.0000
11230OM     OM111230   2.315   0.873   1.309  0.0000  0.0000  0.0000
11231OM     OM111231   3.784   1.531   1.443  0.0000  0.0000  0.0000
11232OM     OM111232   0.688   7.964   8.315  0.0000  0.0000  0.0000
11233OM     OM111233   9.519   2.069   8.262  0.0000  0.0000  0.0000
11234OM     OM111234   5.201   7.798   1.381  0.0000  0.0000  0.0000
11235OM     OM111235   6.069   4.353   8.244  0.0000  0.0000  0.0000
11236OM     OM111236   4.723   4.602   8.282  0.0000  0.0000  0.0000
11237OM     OM111237   6.218   1.709   8.338  0.0000  0.0000  0.0000
11238OM     OM111238   4.448   1.284   1.415  0.0000  0.0000  0.0000
11239OM     OM111239   0.531   2.108   8.307  0.0000  0.0000  0.0000
11240OM     OM111240   7.910   3.638   1.398  0.0000  0.0000  0.0000
11241OM     OM111241   3.780   5.050   1.266  0.0000  0.0000  0.0000
11242OM     OM111242   0.950   2.009   8.165  0.0000  0.0000  0.0000
11243OM     OM111243   9.156   4.048   1.315  0.0000  0.0000  0.0000
11244OM     OM111244   0.551   1.852   8.312  0.0000  0.0000  0.0000
11245OM     OM111245   5.780   6.210   8.289  0.0000  0.0000  0.0000
11246OM     OM111246   7.586   0.750   8.186  0.0000  0.0000  0.0000
11247OM     OM111247   3.541   8.050   8.186  0.0000  0.0000  0.0000
11248OM     OM111248   1.620   2.500   8.398  0.0000  0.0000  0.0000
11249OM     OM111249   4.075   5.847   1.389  0.0000  0.0000  0.0000
11250OM     OM111250   9.377   2.993   8.359  0.0000  0.0000  0.0000
11251OM     OM111251   2.597   3.762   8.215  0.0000  0.0000  0.0000
11252OM     OM111252   5.420   8.629   1.336  0.0000  0.0000  0.0000
11253OM     OM111253   7.385   7.859   1.249  0.0000  0.0000  0.0000
11254OM     OM111254   8.094   9.241   1.364  0.0000  0.0000  0.0000
11255OM     OM111255   1.244   8.536   1.403  0.0000  0.0000  0.0000
11256OM     OM111256   2.195   1.543   8.248  0.0000  0.0000  0.0000
11257OM     OM111257   1.627   9.232   1.394  0.0000  0.0000  0.0000
11258OM     OM111258   7.942   0.696   1.450  0.0000  0.0000  0.0000
11259OM     OM111259   5.442   5.573   1.345  0.0000  0.0000  0.0000
11260OM     OM111260   3.923   4.547   8.143  0.0000  0.0000  0.0000
11261OM     OM111261   7.910   1.071   1.171  0.0000  0.0000  0.0000
11262OM     OM111262   4.120   2.844   1.313  0.0000  0.0000  0.0000
11263OM     OM111263   6.937   8.067   8.186  0.0000  0.0000  0.0000
11264OM     OM111264   3.014   6.310   1.380  0.0000  0.0000  0.0000
11265OM     OM111265   9.537   4.385   1.425  0.0000  0.0000  0.0000
11266OM     OM111266   4.301   3.769   1.227  0.0000  0.0000  0.0000
11267OM     OM111267   4.538   4.298   1.320  0.0000  0.0000  0.0000
11268OM     OM111268   9.305   7.177   8.288  0.0000  0.0000  0.0000
11269OM     OM111269   1.992   2.840   1.316  0.0000  0.0000  0.0000
11270OM     OM111270   1.081   9.283   8.245  0.0000  0.0000  0.0000
11271OM     OM111271   7.220   0.542   1.445  0.0000  0.0000  0.0000
11272OM     OM111272   6.252   0.246   8.317  0.0000  0.0000  0.0000
11273OM     OM111273   6.385   7.664   8.223  0.0000  0.0000  0.0000
11274OM     OM111274   7.572   5.541   8.246  0.0000  0.0000  0.0000
11275OM     OM111275   0.153   5.595   8.240  0.0000  0.0000  0.0000
11276OM     OM111276   4.496   8.381   8.180  0.0000  0.0000  0.0000
11277OM     OM111277   4.020   8.059   1.331  0.0000  0.0000  0.0000
11278OM     OM111278   1.602   2.230   8.203  0.0000  0.0000  0.0000
11279OM     OM111279   8.091   4.231   8.312  0.0000  0.0000  0.0000
11280OM     OM111280   6.392   7.407   1.420  0.0000  0.0000  0.0000
11281OM     OM111281   0.583   4.182   8.284  0.0000  0.0000  0.0000
11282OM     OM111282   8.536   5.703   1.339  0.0000  0.0000  0.0000
11283OM     OM111283   4.826   7.477   8.351  0.0000  0.0000  0.0000
11284OM     OM111284   6.410   0.764   1.277  0.0000  0.0000  0.0000
11285OM     OM111285   2.713   0.770   8.241  0.0000  0.0000  0.0000
11286OM     OM111286   1.928   5.792   1.267  0.0000  0.0000  0.0000
11287OM     OM111287   4.243   4.658   1.378  0.0000  0.0000  0.0000
11288OM     OM111288   2.291   4.638   1.281  0.0000  0.0000  0.0000
11289OM     OM111289   2.169   3.524   8.246  0.0000  0.0000  0.0000
11290OM     OM111290   8.536   7.139   1.233  0.0000  0.0000  0.0000
11291OM     OM111291   9.271   3.691   1.203  0.0000  0.0000  0.0000
11292OM     OM111292   7.288   3.283   1.206  0.0000  0.0000  0.0000
11293OM     OM111293   5.177   0.349   8.292  0.0000  0.0000  0.0000
11294OM     OM111294   0.198   1.386   1.318  0.0000  0.0000  0.0000
11295OM     OM111295   2.648   9.308   8.258  0.0000  0.0000  0.0000
11296OM     OM111296   4.533   7.412   1.381  0.0000  0.0000  0.0000
11297OM     OM111297   9.287   4.818   1.297  0.0000  0.0000  0.0000
11298OM     OM111298   6.792   4.116   1.430  0.0000  0.0000  0.0000
11299OM     OM111299   0.380   4.011   1.450  0.0000  0.0000  0.0000
11300OM     OM111300   1.235   1.092   8.248  0.0000  0.0000  0.0000
11301OM     OM111301   2.960   0.851   1.202  0.0000  0.0000  0.0000
11302OM     OM111302   4.197   4.473   1.355  0.0000  0.0000  0.0000
11303OM     OM111303   8.230   1.925   1.288  0.0000  0.0000  0.0000
11304OM     OM111304   8.833   5.659   8.303  0.0000  0.0000  0.0000
11305OM     OM111305   2.883   5.893   8.190  0.0000  0.0000  0.0000
11306OM     OM111306   3.663   5.692   1.193  0.0000  0.0000  0.0000
11307OM     OM111307   5.154   5.365   8.431  0.0000  0.0000  0.0000
11308OM     OM111308   4.421   8.822   8.294  0.0000  0.0000  0.0000
11309OM     OM111309   0.380   6.308   8.271  0.0000  0.0000  0.0000
11310OM     OM111310   8.474   4.617   1.315  0.0000  0.0000  0.0000
11311OM     OM111311   6.104   2.578   1.269  0.0000  0.0000  0.0000
11312OM     OM111312   7.029   4.947   1.137  0.0000  0.0000  0.0000
11313OM     OM111313   1.212   8.163   8.308  0.0000  0.0000  0.0000
11314OM     OM111314   1.943   0.266   8.236  0.0000  0.0000  0.0000
11315OM     OM111315   8.892   5.026   8.393  0.0000  0.0000  0.0000
11316OM     OM111316   0.655   0.275   8.207  0.0000  0.0000  0.0000
11317OM     OM111317   4.861   2.701   1.303  0.0000  0.0000  0.0000
11318OM     OM111318   7.326   0.228   1.411  0.0000  0.0000  0.0000
11319OM     OM111319   8.123   3.050   1.257  0.0000  0.0000  0.0000
11320OM     OM111320   6.002   4.746   8.302  0.0000  0.0000  0.0000
11321OM     OM111321   9.016   3.008   8.241  0.0000  0.0000  0.0000
11322OM     OM111322   4.075   3.336   1.393  0.0000  0.0000  0.0000
11323OM     OM111323   3.031   3.597   1.020  0.0000  0.0000  0.0000
11324OM     OM111324   9.240   3.185   1.304  0.0000  0.0000  0.0000
11325OM     OM111325   8.718   9.195   8.343  0.0000  0.0000  0.0000
11326OM     OM111326   9.132   0.996   8.245  0.0000  0.0000  0.0000
11327OM     OM111327   6.575   6.134   1.492  0.0000  0.0000  0.0000
11328OM     OM111328   1.351   0.237   1.272  0.0000  0.0000  0.0000
11329OM     OM111329   8.704   5.944   8.360  0.0000  0.0000  0.0000
11330OM     OM111330   3.440   9.161   1.316  0.0000  0.0000  0.0000
11331OM     OM111331   3.931   6.775   8.175  0.0000  0.0000  0.0000
11332OM     OM111332   6.939   6.746   1.303  0.0000  0.0000  0.0000
11333OM     OM111333   4.488   7.800   8.335  0.0000  0.0000  0.0000
11334OM     OM111334   5.839   2.075   1.389  0.0000  0.0000  0.0000
11335OM     OM111335   8.211   5.906   1.392  0.0000  0.0000  0.0000
11336OM     OM111336   2.596   8.012   1.314  0.0000  0.0000  0.0000
11337OM     OM111337   5.160   9.064   1.359  0.0000  0.0000  0.0000
11338OM     OM111338   5.424   6.909   1.442  0.0000  0.0000  0.0000
11339OM     OM111339   2.612   7.184   1.380  0.0000  0.0000  0.0000
11340OM     OM111340   8.371   1.231   1.415  0.0000  0.0000  0.0000
11341OM     OM111341   8.612   3.844   1.481  0.0000  0.0000  0.0000
11342OM     OM111342   0.652   3.310   1.341  0.0000  0.0000  0.0000
11343OM     OM111343   4.488   2.148   8.280  0.0000  0.0000  0.0000
11344OM     OM111344   0.220   3.606   1.308  0.0000  0.0000  0.0000
11345OM     OM111345   1.320   1.849   8.166  0.0000  0.0000  0.0000
11346OM     OM111346   8.376   3.381   8.301  0.0000  0.0000  0.0000
11347OM     OM111347   2.397   5.032   8.291  0.0000  0.0000  0.0000
11348OM     OM111348   7.585   6.792   1.344  0.0000  0.0000  0.0000
11349OM     OM111349   5.491   0.366   1.325  0.0000  0.0000  0.0000
11350OM     OM111350   2.262   2.675   1.391  0.0000  0.0000  0.0000
11351OM     OM111351   0.373   8.825   8.318  0.0000  0.0000  0.0000
11352OM     OM111352   6.575   1.329   1.175  0.0000  0.0000  0.0000
11353OM     OM111353   3.181   1.864   8.408  0.0000  0.0000  0.0000
11354OM     OM111354   8.913   5.028   1.435  0.0000  0.0000  0.0000
11355OM     OM111355   0.918   4.900   1.264  0.0000  0.0000  0.0000
11356OM     OM111356   4.957   4.025   8.213  0.0000  0.0000  0.0000
11357OM     OM111357   3.202   3.114   0.848  0.0000  0.0000  0.0000
11358OM     OM111358   0.731   6.467   1.382  0.0000  0.0000  0.0000
11359OM     OM111359   6.825   6.250   8.483  0.0000  0.0000  0.0000
11360OM     OM111360   4.230   5.211   1.350  0.0000  0.0000  0.0000
11361OM     OM111361   7.271   3.315   8.207  0.0000  0.0000  0.0000
11362OM     OM111362   5.226   6.494   1.287  0.0000  0.0000  0.0000
11363OM     OM111363   7.536   4.311   8.236  0.0000  0.0000  0.0000
11364OM     OM111364   2.427   6.083   8.276  0.0000  0.0000  0.0000
11365OM     OM111365   1.410   2.948   8.286  0.0000  0.0000  0.0000
11366OM     OM111366   8.931   8.618   8.261  0.0000  0.0000  0.0000
11367OM     OM111367   6.599   9.138   1.288  0.0000  0.0000  0.0000
11368OM     OM111368   6.497   5.848   8.333  0.0000  0.0000  0.0000
11369OM     OM111369   8.116   2.913   8.417  0.0000  0.0000  0.0000
11370OM     OM111370   3.073   1.100   8.228  0.0000  0.0000  0.0000
11371OM     OM111371   2.069   5.663   8.167  0.0000  0.0000  0.0000
11372OM     OM111372   5.289   1.507   1.346  0.0000  0.0000  0.0000
11373OM     OM111373   1.198   6.156   1.315  0.0000  0.0000  0.0000
11374OM     OM111374   3.479   3.742   1.347  0.0000  0.0000  0.0000
11375OM     OM111375   2.824   9.074   1.346  0.0000  0.0000  0.0000
11376OM     OM111376   6.870   4.970   8.345  0.0000  0.0000  0.0000
11377OM     OM111377   4.498   3.161   8.435  0.0000  0.0000  0.0000
11378OM     OM111378   9.247   6.757   1.311  0.0000  0.0000  0.0000
11379SI     SI111379   3.828   2.951   0.428  0.0000  0.0000  0.0000
11380SI     SI111380   6.126   5.549   8.914  0.0000  0.0000  0.0000
11381SI     SI111381   4.913   3.675   1.184  0.0000  0.0000  0.0000
11382SI     SI111382   8.881   4.095   9.347  0.0000  0.0000  0.0000
11383SI     SI111383   0.699   4.887   1.413  0.0000  0.0000  0.0000
11384SI     SI111384   5.800   6.900   1.166  0.0000  0.0000  0.0000
11385SI     SI111385   1.683   0.810   0.736  0.0000  0.0000  0.0000
11386SI     SI111386   8.774   6.195   0.282  0.0000  0.0000  0.0000
11387SI     SI111387   3.389   6.775   9.440  0.0000  0.0000  0.0000
11388SI     SI111388   1.312   3.075   9.568  0.0000  0.0000  0.0000
11389SI     SI111389   7.965   1.045   8.432  0.0000  0.0000  0.0000
11390SI     SI111390   1.439   8.128   9.127  0.0000  0.0000  0.0000
11391SI     SI111391   6.947   6.527   8.744  0.0000  0.0000  0.0000
11392SI     SI111392   3.847   1.109   0.140  0.0000  0.0000  0.0000
11393SI     SI111393   1.783   1.466   8.425  0.0000  0.0000  0.0000
11394SI     SI111394   1.368   3.200   8.353  0.0000  0.0000  0.0000
11395SI     SI111395   4.137   4.574   0.148  0.0000  0.0000  0.0000
11396SI     SI111396   4.816   9.585   1.158  0.0000  0.0000  0.0000
11397SI     SI111397   3.645   4.078   8.705  0.0000  0.0000  0.0000
11398SI     SI111398   2.910   0.952   0.758  0.0000  0.0000  0.0000
11399SI     SI111399   5.951   1.925   0.442  0.0000  0.0000  0.0000
11400SI     SI111400   8.830   4.024   1.332  0.0000  0.0000  0.0000
11401SI     SI111401   0.323   1.479   9.200  0.0000  0.0000  0.0000
11402SI     SI111402   5.765   1.368   9.444  0.0000  0.0000  0.0000
11403SI     SI111403   0.418   3.122   0.269  0.0000  0.0000  0.0000
11404SI     SI111404   0.550   2.146   0.498  0.0000  0.0000  0.0000
11405SI     SI111405   7.549   5.127   0.360  0.0000  0.0000  0.0000
11406SI     SI111406   9.428   0.142   9.284  0.0000  0.0000  0.0000
11407SI     SI111407   4.001   2.392   9.518  0.0000  0.0000  0.0000
11408SI     SI111408   5.426   5.127   9.080  0.0000  0.0000  0.0000
11409SI     SI111409   6.024   8.697   9.095  0.0000  0.0000  0.0000
11410SI     SI111410   5.714   5.045   9.145  0.0000  0.0000  0.0000
11411SI     SI111411   0.595   3.836   8.655  0.0000  0.0000  0.0000
11412SI     SI111412   6.213   2.270   8.448  0.0000  0.0000  0.0000
11413SI     SI111413   2.325   3.493   0.259  0.0000  0.0000  0.0000
11414SI     SI111414   7.683   1.521   0.272  0.0000  0.0000  0.0000
11415SI     SI111415   9.031   4.333   9.487  0.0000  0.0000  0.0000
11416SI     SI111416   5.092   2.824   8.826  0.0000  0.0000  0.0000
11417SI     SI111417   8.172   7.506   0.708  0.0000  0.0000  0.0000
11418SI     SI111418   1.677   1.228   8.587  0.0000  0.0000  0.0000
11419SI     SI111419   0.859   1.819   0.692  0.0000  0.0000  0.0000
11420SI     SI111420   5.849   0.144   0.944  0.0000  0.0000  0.0000
11421SI     SI111421   5.432   6.300   0.975  0.0000  0.0000  0.0000
11422SI     SI111422   5.539   3.315   0.486  0.0000  0.0000  0.0000
11423SI     SI111423   7.278   6.570   0.208  0.0000  0.0000  0.0000
11424SI     SI111424   8.774   0.787   0.574  0.0000  0.0000  0.0000
11425SI     SI111425   7.206   3.448   9.133  0.0000  0.0000  0.0000
11426SI     SI111426   3.381   3.708   0.816  0.0000  0.0000  0.0000
11427SI     SI111427   2.416   2.616   1.046  0.0000  0.0000  0.0000
11428SI     SI111428   3.393   7.945   0.368  0.0000  0.0000  0.0000
11429SI     SI111429   7.418   5.035   9.481  0.0000  0.0000  0.0000
11430SI     SI111430   8.015   1.468   8.654  0.0000  0.0000  0.0000
11431SI     SI111431   8.499   9.063   8.343  0.0000  0.0000  0.0000
11432SI     SI111432   6.294   3.373   0.021  0.0000  0.0000  0.0000
11433SI     SI111433   7.023   0.525   0.795  0.0000  0.0000  0.0000
11434SI     SI111434   6.151   0.620   0.522  0.0000  0.0000  0.0000
11435SI     SI111435   8.664   5.957   9.108  0.0000  0.0000  0.0000
11436SI     SI111436   8.169   5.177   0.867  0.0000  0.0000  0.0000
11437SI     SI111437   8.447   1.779   1.289  0.0000  0.0000  0.0000
11438SI     SI111438   6.333   1.534   8.997  0.0000  0.0000  0.0000
11439SI     SI111439   9.174   6.861   8.389  0.0000  0.0000  0.0000
11440SI     SI111440   7.989   2.595   9.269  0.0000  0.0000  0.0000
11441SI     SI111441   9.236   6.066   9.228  0.0000  0.0000  0.0000
11442SI     SI111442   5.358   3.641   0.783  0.0000  0.0000  0.0000
11443SI     SI111443   7.655   1.210   9.094  0.0000  0.0000  0.0000
11444SI     SI111444   7.049   3.466   1.252  0.0000  0.0000  0.0000
11445SI     SI111445   6.913   6.111   0.542  0.0000  0.0000  0.0000
11446SI     SI111446   8.816   7.576   9.324  0.0000  0.0000  0.0000
11447SI     SI111447   3.097   1.541   0.034  0.0000  0.0000  0.0000
11448SI     SI111448   1.560   4.297   0.195  0.0000  0.0000  0.0000
11449SI     SI111449   2.265   4.043   0.278  0.0000  0.0000  0.0000
11450SI     SI111450   3.267   1.786   1.182  0.0000  0.0000  0.0000
11451SI     SI111451   5.598   0.120   9.315  0.0000  0.0000  0.0000
11452SI     SI111452   9.430   6.976   8.282  0.0000  0.0000  0.0000
11453SI     SI111453   1.064   1.322   0.801  0.0000  0.0000  0.0000
11454SI     SI111454   6.900   6.230   0.253  0.0000  0.0000  0.0000
11455SI     SI111455   5.979   5.508   0.011  0.0000  0.0000  0.0000
11456SI     SI111456   4.147   7.303   8.955  0.0000  0.0000  0.0000
11457SI     SI111457   4.153   8.892   0.154  0.0000  0.0000  0.0000
11458SI     SI111458   0.160   4.706   8.996  0.0000  0.0000  0.0000
11459SI     SI111459   8.885   2.737   9.297  0.0000  0.0000  0.0000
11460SI     SI111460   0.060   7.192   8.999  0.0000  0.0000  0.0000
11461SI     SI111461   4.579   1.916   8.298  0.0000  0.0000  0.0000
11462SI     SI111462   7.349   3.281   0.630  0.0000  0.0000  0.0000
11463SI     SI111463   9.254   0.613   1.163  0.0000  0.0000  0.0000
11464SI     SI111464   4.294   5.097   0.177  0.0000  0.0000  0.0000
11465SI     SI111465   8.328   8.586   0.796  0.0000  0.0000  0.0000
11466SI     SI111466   9.189   7.411   8.440  0.0000  0.0000  0.0000
11467SI     SI111467   4.305   8.788   8.640  0.0000  0.0000  0.0000
11468SI     SI111468   1.373   6.424   0.173  0.0000  0.0000  0.0000
11469SI     SI111469   9.108   2.967   1.007  0.0000  0.0000  0.0000
11470SI     SI111470   8.123   7.835   0.020  0.0000  0.0000  0.0000
11471SI     SI111471   0.496   9.437   9.288  0.0000  0.0000  0.0000
11472SI     SI111472   3.973   8.756   9.057  0.0000  0.0000  0.0000
11473SI     SI111473   8.769   0.995   0.160  0.0000  0.0000  0.0000
11474SI     SI111474   9.575   4.168   0.207  0.0000  0.0000  0.0000
11475SI     SI111475   6.275   9.203   0.069  0.0000  0.0000  0.0000
11476SI     SI111476   6.740   4.354   8.563  0.0000  0.0000  0.0000
11477SI     SI111477   5.076   9.187   0.207  0.0000  0.0000  0.0000
11478SI     SI111478   9.011   6.203   9.409  0.0000  0.0000  0.0000
11479SI     SI111479   1.891   0.153   9.359  0.0000  0.0000  0.0000
11480SI     SI111480   5.078   4.162   9.081  0.0000  0.0000  0.0000
11481SI     SI111481   8.690   7.669   8.889  0.0000  0.0000  0.0000
11482SI     SI111482   1.634   6.691   8.389  0.0000  0.0000  0.0000
11483SI     SI111483   9.182   1.920   9.441  0.0000  0.0000  0.0000
11484SI     SI111484   7.104   5.368   0.346  0.0000  0.0000  0.0000
11485SI     SI111485   2.133   8.193   0.961  0.0000  0.0000  0.0000
11486SI     SI111486   4.714   3.228   9.161  0.0000  0.0000  0.0000
11487SI     SI111487   5.777   6.064   0.341  0.0000  0.0000  0.0000
11488SI     SI111488   8.884   6.759   8.620  0.0000  0.0000  0.0000
11489SI     SI111489   0.671   3.379   9.537  0.0000  0.0000  0.0000
11490SI     SI111490   7.763   1.347   1.166  0.0000  0.0000  0.0000
11491SI     SI111491   1.920   5.263   0.177  0.0000  0.0000  0.0000
11492SI     SI111492   5.160   7.635   9.168  0.0000  0.0000  0.0000
11493SI     SI111493   6.701   3.816   8.465  0.0000  0.0000  0.0000
11494SI     SI111494   0.282   0.872   8.950  0.0000  0.0000  0.0000
11495SI     SI111495   3.599   9.451   9.091  0.0000  0.0000  0.0000
11496SI     SI111496   6.351   5.548   9.248  0.0000  0.0000  0.0000
11497SI     SI111497   9.416   2.982   0.210  0.0000  0.0000  0.0000
11498SI     SI111498   0.733   6.770   8.387  0.0000  0.0000  0.0000
11499SI     SI111499   6.318   7.646   1.169  0.0000  0.0000  0.0000
11500SI     SI111500   7.565   8.398   0.537  0.0000  0.0000  0.0000
11501SI     SI111501   1.076   4.116   9.284  0.0000  0.0000  0.0000
11502SI     SI111502   3.877   9.602   9.053  0.0000  0.0000  0.0000
11503SI     SI111503   3.566   6.475   1.086  0.0000  0.0000  0.0000
11504SI     SI111504   1.434   8.718   8.929  0.0000  0.0000  0.0000
11505SI     SI111505   5.960   3.533   0.226  0.0000  0.0000  0.0000
11506SI     SI111506   8.756   6.238   9.222  0.0000  0.0000  0.0000
11507SI     SI111507   7.875   4.071   0.664  0.0000  0.0000  0.0000
11508SI     SI111508   5.010   6.294   9.471  0.0000  0.0000  0.0000
11509SI     SI111509   6.865   1.157   8.441  0.0000  0.0000  0.0000
11510SI     SI111510   2.773   2.364   8.855  0.0000  0.0000  0.0000
11511SI     SI111511   6.339   6.912   8.556  0.0000  0.0000  0.0000
11512SI     SI111512   9.237   8.035   0.552  0.0000  0.0000  0.0000
11513SI     SI111513   7.290   3.945   0.263  0.0000  0.0000  0.0000
11514SI     SI111514   1.135   5.049   1.234  0.0000  0.0000  0.0000
11515SI     SI111515   0.237   7.373   8.838  0.0000  0.0000  0.0000
11516SI     SI111516   8.132   5.794   9.090  0.0000  0.0000  0.0000
11517SI     SI111517   1.559   9.384   0.033  0.0000  0.0000  0.0000
11518SI     SI111518   2.394   5.711   9.194  0.0000  0.0000  0.0000
11519SI     SI111519   9.081   4.999   1.140  0.0000  0.0000  0.0000
11520SI     SI111520   7.670   0.118   9.154  0.0000  0.0000  0.0000
11521SI     SI111521   7.959   0.145   9.062  0.0000  0.0000  0.0000
11522SI     SI111522   6.040   3.252   0.852  0.0000  0.0000  0.0000
11523SI     SI111523   1.649   2.444   9.470  0.0000  0.0000  0.0000
11524SI     SI111524   6.754   1.489   1.271  0.0000  0.0000  0.0000
11525SI     SI111525   0.037   6.930   0.268  0.0000  0.0000  0.0000
11526SI     SI111526   4.640   9.085   8.840  0.0000  0.0000  0.0000
11527SI     SI111527   8.514   7.645   9.386  0.0000  0.0000  0.0000
11528SI     SI111528   4.847   0.141   9.160  0.0000  0.0000  0.0000
11529SI     SI111529   8.853   6.594   0.121  0.0000  0.0000  0.0000
11530SI     SI111530   0.450   0.583   0.086  0.0000  0.0000  0.0000
11531SI     SI111531   8.888   1.942   9.342  0.0000  0.0000  0.0000
11532SI     SI111532   7.670   7.691   0.326  0.0000  0.0000  0.0000
11533SI     SI111533   9.593   0.811   8.469  0.0000  0.0000  0.0000
11534SI     SI111534   8.430   7.761   0.066  0.0000  0.0000  0.0000
11535SI     SI111535   8.368   1.595   0.088  0.0000  0.0000  0.0000
11536SI     SI111536   0.203   8.807   0.630  0.0000  0.0000  0.0000
11537SI     SI111537   0.077   1.377   0.333  0.0000  0.0000  0.0000
11538SI     SI111538   5.562   4.146   9.046  0.0000  0.0000  0.0000
11539SI     SI111539   0.581   4.136   1.391  0.0000  0.0000  0.0000
11540SI     SI111540   3.392   3.589   9.560  0.0000  0.0000  0.0000
11541SI     SI111541   9.027   5.541   9.075  0.0000  0.0000  0.0000
11542SI     SI111542   7.438   2.120   8.675  0.0000  0.0000  0.0000
11543SI     SI111543   8.537   0.872   0.001  0.0000  0.0000  0.0000
11544SI     SI111544   0.493   4.276   8.651  0.0000  0.0000  0.0000
11545SI     SI111545   2.687   6.934   8.750  0.0000  0.0000  0.0000
11546SI     SI111546   6.002   0.309   0.730  0.0000  0.0000  0.0000
11547SI     SI111547   3.390   4.445   0.242  0.0000  0.0000  0.0000
11548SI     SI111548   8.134   9.018   1.041  0.0000  0.0000  0.0000
11549SI     SI111549   9.065   3.328   0.352  0.0000  0.0000  0.0000
11550SI     SI111550   3.711   0.650   0.986  0.0000  0.0000  0.0000
11551SI     SI111551   3.613   0.602   8.360  0.0000  0.0000  0.0000
11552SI     SI111552   3.410   6.850   0.785  0.0000  0.0000  0.0000
11553SI     SI111553   2.633   3.529   8.768  0.0000  0.0000  0.0000
11554SI     SI111554   2.073   5.893   9.035  0.0000  0.0000  0.0000
11555SI     SI111555   4.198   3.632   9.578  0.0000  0.0000  0.0000
11556SI     SI111556   9.379   9.003   8.493  0.0000  0.0000  0.0000
11557SI     SI111557   5.221   0.937   0.585  0.0000  0.0000  0.0000
11558SI     SI111558   3.419   9.271   0.705  0.0000  0.0000  0.0000
11559SI     SI111559   7.015   8.132   9.437  0.0000  0.0000  0.0000
11560SI     SI111560   8.900   5.262   9.026  0.0000  0.0000  0.0000
11561SI     SI111561   3.426   5.343   9.390  0.0000  0.0000  0.0000
11562SI     SI111562   1.574   7.819   9.532  0.0000  0.0000  0.0000
11563SI     SI111563   0.068   4.447   8.827  0.0000  0.0000  0.0000
11564SI     SI111564   1.091   3.091   8.427  0.0000  0.0000  0.0000
11565SI     SI111565   4.433   4.903   9.577  0.0000  0.0000  0.0000
11566SI     SI111566   1.770   1.189   1.095  0.0000  0.0000  0.0000
11567SI     SI111567   8.351   8.281   9.529  0.0000  0.0000  0.0000
11568SI     SI111568   9.377   4.980   1.049  0.0000  0.0000  0.0000
11569SI     SI111569   4.282   2.824   0.744  0.0000  0.0000  0.0000
11570SI     SI111570   1.142   3.466   0.036  0.0000  0.0000  0.0000
11571SI     SI111571   6.666   0.812   0.095  0.0000  0.0000  0.0000
11572SI     SI111572   8.403   4.146   1.105  0.0000  0.0000  0.0000
11573SI     SI111573   4.487   0.757   0.476  0.0000  0.0000  0.0000
11574SI     SI111574   8.941   1.027   9.496  0.0000  0.0000  0.0000
11575SI     SI111575   9.317   1.869   0.920  0.0000  0.0000  0.0000
11576SI     SI111576   7.055   1.809   9.597  0.0000  0.0000  0.0000
11577SI     SI111577   1.039   8.316   8.903  0.0000  0.0000  0.0000
11578SI     SI111578   6.406   0.665   0.162  0.0000  0.0000  0.0000
11579SI     SI111579   1.767   0.303   9.116  0.0000  0.0000  0.0000
11580SI     SI111580   3.495   3.824   0.121  0.0000  0.0000  0.0000
11581SI     SI111581   7.338   4.527   8.570  0.0000  0.0000  0.0000
11582SI     SI111582   7.001   9.047   0.888  0.0000  0.0000  0.0000
11583SI     SI111583   6.005   6.709   9.564  0.0000  0.0000  0.0000
11584SI     SI111584   1.155   3.113   1.173  0.0000  0.0000  0.0000
11585SI     SI111585   0.054   8.600   1.081  0.0000  0.0000  0.0000
11586SI     SI111586   7.283   9.399   0.724  0.0000  0.0000  0.0000
11587SI     SI111587   4.700   8.587   0.262  0.0000  0.0000  0.0000
11588SI     SI111588   2.313   0.819   0.257  0.0000  0.0000  0.0000
11589SI     SI111589   2.153   8.863   8.846  0.0000  0.0000  0.0000
11590SI     SI111590   6.049   2.671   0.083  0.0000  0.0000  0.0000
11591SI     SI111591   5.438   5.596   8.761  0.0000  0.0000  0.0000
11592SI     SI111592   2.510   8.125   9.124  0.0000  0.0000  0.0000
11593SI     SI111593   0.423   8.913   8.887  0.0000  0.0000  0.0000
11594SI     SI111594   0.634   7.891   8.751  0.0000  0.0000  0.0000
11595SI     SI111595   6.608   6.744   0.518  0.0000  0.0000  0.0000
11596SI     SI111596   7.435   3.505   8.725  0.0000  0.0000  0.0000
11597SI     SI111597   4.894   7.804   9.225  0.0000  0.0000  0.0000
11598SI     SI111598   2.737   0.103   9.221  0.0000  0.0000  0.0000
11599SI     SI111599   2.402   5.907   0.585  0.0000  0.0000  0.0000
11600SI     SI111600   6.197   1.602   0.125  0.0000  0.0000  0.0000
11601SI     SI111601   2.153   7.862   8.971  0.0000  0.0000  0.0000
11602SI     SI111602   3.325   1.277   1.168  0.0000  0.0000  0.0000
11603SI     SI111603   6.236   6.207   8.612  0.0000  0.0000  0.0000
11604SI     SI111604   0.134   6.288   0.563  0.0000  0.0000  0.0000
11605SI     SI111605   5.036   6.763   8.786  0.0000  0.0000  0.0000
11606SI     SI111606   7.967   3.601   8.671  0.0000  0.0000  0.0000
11607SI     SI111607   7.398   5.857   9.142  0.0000  0.0000  0.0000
11608SI     SI111608   2.262   5.681   0.405  0.0000  0.0000  0.0000
11609SI     SI111609   7.441   8.881   0.661  0.0000  0.0000  0.0000
11610SI     SI111610   9.030   7.138   9.268  0.0000  0.0000  0.0000
11611SI     SI111611   1.704   2.762   0.967  0.0000  0.0000  0.0000
11612SI     SI111612   0.052   5.527   1.226  0.0000  0.0000  0.0000
11613SI     SI111613   2.340   7.634   0.138  0.0000  0.0000  0.0000
11614SI     SI111614   1.185   2.996   0.915  0.0000  0.0000  0.0000
11615SI     SI111615   8.696   5.259   8.635  0.0000  0.0000  0.0000
11616SI     SI111616   4.111   7.111   8.733  0.0000  0.0000  0.0000
11617SI     SI111617   3.790   7.574   9.068  0.0000  0.0000  0.0000
11618SI     SI111618   7.301   6.309   9.436  0.0000  0.0000  0.0000
11619SI     SI111619   5.285   8.529   0.288  0.0000  0.0000  0.0000
11620SI     SI111620   3.339   1.901   0.371  0.0000  0.0000  0.0000
11621SI     SI111621   1.889   5.974   0.532  0.0000  0.0000  0.0000
11622SI     SI111622   1.129   4.402   0.970  0.0000  0.0000  0.0000
11623SI     SI111623   8.024   3.505   8.374  0.0000  0.0000  0.0000
11624SI     SI111624   5.997   8.863   0.240  0.0000  0.0000  0.0000
11625SI     SI111625   6.539   6.691   1.171  0.0000  0.0000  0.0000
11626SI     SI111626   0.732   8.824   8.885  0.0000  0.0000  0.0000
11627SI     SI111627   4.714   6.471   0.815  0.0000  0.0000  0.0000
11628SI     SI111628   0.330   8.573   1.210  0.0000  0.0000  0.0000
11629SI     SI111629   3.355   4.078   9.394  0.0000  0.0000  0.0000
11630SI     SI111630   4.116   9.068   9.292  0.0000  0.0000  0.0000
11631SI     SI111631   0.535   6.840   9.354  0.0000  0.0000  0.0000
11632SI     SI111632   6.861   1.990   0.664  0.0000  0.0000  0.0000
11633SI     SI111633   6.887   8.828   0.689  0.0000  0.0000  0.0000
11634SI     SI111634   4.935   7.780   8.680  0.0000  0.0000  0.0000
11635SI     SI111635   9.110   6.643   0.830  0.0000  0.0000  0.0000
11636SI     SI111636   9.008   7.821   0.592  0.0000  0.0000  0.0000
11637SI     SI111637   4.443   6.016   1.088  0.0000  0.0000  0.0000
11638SI     SI111638   5.535   7.410   0.896  0.0000  0.0000  0.0000
11639SI     SI111639   1.913   7.063   8.579  0.0000  0.0000  0.0000
11640SI     SI111640   0.924   7.225   9.112  0.0000  0.0000  0.0000
11641SI     SI111641   0.864   5.158   0.006  0.0000  0.0000  0.0000
11642SI     SI111642   8.144   9.601   9.248  0.0000  0.0000  0.0000
11643SI     SI111643   8.381   0.380   8.970  0.0000  0.0000  0.0000
11644SI     SI111644   3.485   8.524   9.468  0.0000  0.0000  0.0000
11645SI     SI111645   0.728   3.187   0.320  0.0000  0.0000  0.0000
11646SI     SI111646   4.483   7.581   8.933  0.0000  0.0000  0.0000
11647SI     SI111647   8.832   9.581   0.525  0.0000  0.0000  0.0000
11648SI     SI111648   0.259   1.021   1.216  0.0000  0.0000  0.0000
11649SI     SI111649   8.527   0.218   8.527  0.0000  0.0000  0.0000
11650SI     SI111650   3.661   1.897   0.377  0.0000  0.0000  0.0000
11651SI     SI111651   8.929   5.111   8.771  0.0000  0.0000  0.0000
11652SI     SI111652   4.825   6.474   0.046  0.0000  0.0000  0.0000
11653SI     SI111653   2.929   3.417   9.478  0.0000  0.0000  0.0000
11654SI     SI111654   7.395   0.607   9.535  0.0000  0.0000  0.0000
11655SI     SI111655   7.625   4.718   0.107  0.0000  0.0000  0.0000
11656SI     SI111656   4.006   5.669   8.559  0.0000  0.0000  0.0000
11657SI     SI111657   2.456   3.372   0.009  0.0000  0.0000  0.0000
11658SI     SI111658   5.175   5.074   0.933  0.0000  0.0000  0.0000
11659SI     SI111659   6.069   6.439   8.740  0.0000  0.0000  0.0000
11660SI     SI111660   6.990   8.675   9.178  0.0000  0.0000  0.0000
11661SI     SI111661   5.791   4.608   0.136  0.0000  0.0000  0.0000
11662SI     SI111662   0.815   0.403   1.112  0.0000  0.0000  0.0000
11663SI     SI111663   0.673   5.072   9.106  0.0000  0.0000  0.0000
11664SI     SI111664   0.829   4.069   9.477  0.0000  0.0000  0.0000
11665SI     SI111665   2.001   7.040   0.295  0.0000  0.0000  0.0000
11666SI     SI111666   8.956   8.451   0.686  0.0000  0.0000  0.0000
11667SI     SI111667   8.429   6.860   9.476  0.0000  0.0000  0.0000
11668SI     SI111668   2.627   0.262   8.816  0.0000  0.0000  0.0000
11669SI     SI111669   7.704   4.998   9.580  0.0000  0.0000  0.0000
11670SI     SI111670   0.691   9.222   0.575  0.0000  0.0000  0.0000
11671SI     SI111671   7.563   5.842   8.883  0.0000  0.0000  0.0000
11672SI     SI111672   1.275   1.132   0.936  0.0000  0.0000  0.0000
11673SI     SI111673   8.893   7.872   9.246  0.0000  0.0000  0.0000
11674SI     SI111674   7.897   2.120   0.949  0.0000  0.0000  0.0000
11675SI     SI111675   5.458   5.876   8.648  0.0000  0.0000  0.0000
11676SI     SI111676   3.153   5.857   8.191  0.0000  0.0000  0.0000
11677SI     SI111677   4.548   6.559   0.369  0.0000  0.0000  0.0000
11678SI     SI111678   0.475   1.688   8.537  0.0000  0.0000  0.0000
11679SI     SI111679   4.810   2.672   0.141  0.0000  0.0000  0.0000
11680SI     SI111680   7.213   1.937   8.576  0.0000  0.0000  0.0000
11681SI     SI111681   8.160   7.814   9.317  0.0000  0.0000  0.0000
11682SI     SI111682   2.180   4.401   9.097  0.0000  0.0000  0.0000
11683SI     SI111683   3.461   0.512   9.336  0.0000  0.0000  0.0000
11684SI     SI111684   8.318   9.240   0.393  0.0000  0.0000  0.0000
11685SI     SI111685   1.314   6.748   1.196  0.0000  0.0000  0.0000
11686SI     SI111686   4.873   3.030   8.748  0.0000  0.0000  0.0000
11687SI     SI111687   6.562   4.658   0.948  0.0000  0.0000  0.0000
11688SI     SI111688   5.427   0.109   0.615  0.0000  0.0000  0.0000
11689SI     SI111689   6.158   7.196   9.458  0.0000  0.0000  0.0000
11690SI     SI111690   3.034   0.535   0.075  0.0000  0.0000  0.0000
11691SI     SI111691   1.176   7.534   0.058  0.0000  0.0000  0.0000
11692SI     SI111692   4.626   6.886   8.607  0.0000  0.0000  0.0000
11693SI     SI111693   4.631   4.207   8.691  0.0000  0.0000  0.0000
11694SI     SI111694   0.343   1.288   0.176  0.0000  0.0000  0.0000
11695SI     SI111695   1.517   3.040   8.884  0.0000  0.0000  0.0000
11696SI     SI111696   0.713   8.730   0.526  0.0000  0.0000  0.0000
11697SI     SI111697   3.370   3.990   9.108  0.0000  0.0000  0.0000
11698SI     SI111698   4.525   6.353   0.610  0.0000  0.0000  0.0000
11699SI     SI111699   9.278   9.561   0.638  0.0000  0.0000  0.0000
11700SI     SI111700   4.305   6.798   0.697  0.0000  0.0000  0.0000
11701SI     SI111701   5.779   0.250   0.266  0.0000  0.0000  0.0000
11702SI     SI111702   9.436   1.955   8.493  0.0000  0.0000  0.0000
11703SI     SI111703   6.222   4.722   0.602  0.0000  0.0000  0.0000
11704SI     SI111704   3.786   2.962   8.578  0.0000  0.0000  0.0000
11705SI     SI111705   5.726   9.514   9.478  0.0000  0.0000  0.0000
11706SI     SI111706   7.979   8.702   0.428  0.0000  0.0000  0.0000
11707SI     SI111707   0.504   4.277   0.699  0.0000  0.0000  0.0000
11708SI     SI111708   6.993   2.835   0.235  0.0000  0.0000  0.0000
11709SI     SI111709   1.955   4.823   8.835  0.0000  0.0000  0.0000
11710SI     SI111710   1.789   7.593   9.059  0.0000  0.0000  0.0000
11711SI     SI111711   5.613   2.498   0.613  0.0000  0.0000  0.0000
11712SI     SI111712   4.491   3.775   8.426  0.0000  0.0000  0.0000
11713SI     SI111713   3.993   3.188   0.557  0.0000  0.0000  0.0000
11714SI     SI111714   6.326   8.884   9.328  0.0000  0.0000  0.0000
11715SI     SI111715   1.735   1.949   8.801  0.0000  0.0000  0.0000
11716SI     SI111716   2.750   0.786   1.096  0.0000  0.0000  0.0000
11717SI     SI111717   2.735   6.715   0.743  0.0000  0.0000  0.0000
11718SI     SI111718   4.594   6.491   8.929  0.0000  0.0000  0.0000
11719SI     SI111719   3.723   3.362   8.994  0.0000  0.0000  0.0000
11720SI     SI111720   2.654   8.480   8.982  0.0000  0.0000  0.0000
11721SI     SI111721   3.067   6.311   9.349  0.0000  0.0000  0.0000
11722SI     SI111722   7.783   2.388   0.830  0.0000  0.0000  0.0000
11723SI     SI111723   7.326   2.692   9.092  0.0000  0.0000  0.0000
11724SI     SI111724   5.764   8.321   8.877  0.0000  0.0000  0.0000
11725SI     SI111725   4.023   0.426   9.329  0.0000  0.0000  0.0000
11726SI     SI111726   2.484   7.837   9.560  0.0000  0.0000  0.0000
11727SI     SI111727   0.020   5.090   9.298  0.0000  0.0000  0.0000
11728SI     SI111728   9.494   8.975   0.216  0.0000  0.0000  0.0000
11729SI     SI111729   3.158   3.438   0.333  0.0000  0.0000  0.0000
11730SI     SI111730   3.495   2.561   9.338  0.0000  0.0000  0.0000
11731SI     SI111731   5.218   4.899   9.093  0.0000  0.0000  0.0000
11732SI     SI111732   4.150   2.751   8.339  0.0000  0.0000  0.0000
11733SI     SI111733   8.013   9.223   0.496  0.0000  0.0000  0.0000
11734SI     SI111734   8.358   2.700   0.767  0.0000  0.0000  0.0000
11735SI     SI111735   6.448   0.038   9.507  0.0000  0.0000  0.0000
11736SI     SI111736   9.169   9.058   0.624  0.0000  0.0000  0.0000
11737SI     SI111737   7.634   3.133   0.987  0.0000  0.0000  0.0000
11738SI     SI111738   4.347   6.743   9.518  0.0000  0.0000  0.0000
11739SI     SI111739   2.648   3.763   0.515  0.0000  0.0000  0.0000
11740SI     SI111740   5.308   8.209   0.673  0.0000  0.0000  0.0000
11741SI     SI111741   5.696   1.851   8.522  0.0000  0.0000  0.0000
11742SI     SI111742   8.559   3.375   0.274  0.0000  0.0000  0.0000
11743SI     SI111743   7.098   8.164   0.595  0.0000  0.0000  0.0000
11744SI     SI111744   5.088   7.307   0.602  0.0000  0.0000  0.0000
11745SI     SI111745   0.173   0.856   0.722  0.0000  0.0000  0.0000
11746SI     SI111746   4.391   8.270   0.736  0.0000  0.0000  0.0000
11747SI     SI111747   7.080   5.197   0.742  0.0000  0.0000  0.0000
11748SI     SI111748   2.903   3.842   9.132  0.0000  0.0000  0.0000
11749SI     SI111749   8.894   6.296   1.081  0.0000  0.0000  0.0000
11750SI     SI111750   7.462   1.566   9.042  0.0000  0.0000  0.0000
11751SI     SI111751   0.029   8.366   9.031  0.0000  0.0000  0.0000
11752SI     SI111752   3.389   3.686   9.037  0.0000  0.0000  0.0000
11753SI     SI111753   1.973   4.126   8.323  0.0000  0.0000  0.0000
11754SI     SI111754   4.128   5.370   9.344  0.0000  0.0000  0.0000
11755SI     SI111755   2.307   0.289   0.172  0.0000  0.0000  0.0000
11756SI     SI111756   4.731   2.219   9.517  0.0000  0.0000  0.0000
11757SI     SI111757   0.708   0.243   0.391  0.0000  0.0000  0.0000
11758SI     SI111758   8.117   4.177   9.599  0.0000  0.0000  0.0000
11759SI     SI111759   7.892   7.982   0.990  0.0000  0.0000  0.0000
11760SI     SI111760   5.330   2.217   9.003  0.0000  0.0000  0.0000
11761SI     SI111761   5.058   1.407   0.638  0.0000  0.0000  0.0000
11762SI     SI111762   8.552   0.096   0.546  0.0000  0.0000  0.0000
11763SI     SI111763   6.457   5.542   0.641  0.0000  0.0000  0.0000
11764SI     SI111764   2.717   2.686   1.005  0.0000  0.0000  0.0000
11765SI     SI111765   0.792   6.984   9.441  0.0000  0.0000  0.0000
11766SI     SI111766   5.181   5.929   0.524  0.0000  0.0000  0.0000
11767SI     SI111767   6.334   5.761   8.805  0.0000  0.0000  0.0000
11768SI     SI111768   6.182   3.341   0.308  0.0000  0.0000  0.0000
11769SI     SI111769   0.194   6.243   0.250  0.0000  0.0000  0.0000
11770SI     SI111770   0.037   0.314   9.162  0.0000  0.0000  0.0000
11771SI     SI111771   2.550   6.738   9.582  0.0000  0.0000  0.0000
11772SI     SI111772   8.875   0.536   8.910  0.0000  0.0000  0.0000
11773SI     SI111773   9.023   8.513   0.399  0.0000  0.0000  0.0000
11774SI     SI111774   0.077   6.930   8.819  0.0000  0.0000  0.0000
11775SI     SI111775   8.918   1.699   0.230  0.0000  0.0000  0.0000
11776SI     SI111776   3.608   5.388   1.126  0.0000  0.0000  0.0000
11777SI     SI111777   4.648   5.447   9.208  0.0000  0.0000  0.0000
11778SI     SI111778   1.477   2.017   0.388  0.0000  0.0000  0.0000
11779SI     SI111779   7.363   7.666   0.802  0.0000  0.0000  0.0000
11780SI     SI111780   3.485   4.189   8.477  0.0000  0.0000  0.0000
11781SI     SI111781   4.344   7.278   8.739  0.0000  0.0000  0.0000
11782SI     SI111782   1.061   3.832   0.727  0.0000  0.0000  0.0000
11783SI     SI111783   4.346   5.668   0.818  0.0000  0.0000  0.0000
11784SI     SI111784   0.418   5.499   9.220  0.0000  0.0000  0.0000
11785SI     SI111785   5.115   3.863   9.541  0.0000  0.0000  0.0000
11786SI     SI111786   8.693   1.701   9.411  0.0000  0.0000  0.0000
11787SI     SI111787   3.131   2.355   0.179  0.0000  0.0000  0.0000
11788SI     SI111788   7.436   1.451   0.096  0.0000  0.0000  0.0000
11789SI     SI111789   7.563   7.172   8.304  0.0000  0.0000  0.0000
11790SI     SI111790   4.215   6.928   8.206  0.0000  0.0000  0.0000
11791SI     SI111791   9.014   4.681   0.669  0.0000  0.0000  0.0000
11792SI     SI111792   1.555   9.347   8.464  0.0000  0.0000  0.0000
11793SI     SI111793   8.112   5.386   8.476  0.0000  0.0000  0.0000
11794SI     SI111794   1.809   4.108   8.754  0.0000  0.0000  0.0000
11795SI     SI111795   6.706   0.459   9.383  0.0000  0.0000  0.0000
11796SI     SI111796   8.067   4.716   1.060  0.0000  0.0000  0.0000
11797SI     SI111797   6.670   0.905   8.437  0.0000  0.0000  0.0000
11798SI     SI111798   0.438   8.241   9.025  0.0000  0.0000  0.0000
11799SI     SI111799   2.643   8.647   0.271  0.0000  0.0000  0.0000
11800SI     SI111800   8.888   6.864   9.317  0.0000  0.0000  0.0000
11801SI     SI111801   7.655   2.298   9.100  0.0000  0.0000  0.0000
11802SI     SI111802   3.863   5.811   9.117  0.0000  0.0000  0.0000
11803SI     SI111803   6.937   4.111   9.304  0.0000  0.0000  0.0000
11804SI     SI111804   8.313   0.852   0.209  0.0000  0.0000  0.0000
11805SI     SI111805   5.463   1.782   1.093  0.0000  0.0000  0.0000
11806SI     SI111806   0.532   9.042   8.347  0.0000  0.0000  0.0000
11807SI     SI111807   1.777   2.889   8.844  0.0000  0.0000  0.0000
11808SI     SI111808   4.601   3.970   0.025  0.0000  0.0000  0.0000
11809SI     SI111809   9.359   6.051   0.106  0.0000  0.0000  0.0000
11810SI     SI111810   5.015   2.075   8.414  0.0000  0.0000  0.0000
11811SI     SI111811   0.494   6.323   0.293  0.0000  0.0000  0.0000
11812SI     SI111812   7.204   6.165   8.648  0.0000  0.0000  0.0000
11813SI     SI111813   0.390   0.835   0.276  0.0000  0.0000  0.0000
11814SI     SI111814   5.040   0.903   8.907  0.0000  0.0000  0.0000
11815SI     SI111815   6.631   2.098   0.853  0.0000  0.0000  0.0000
11816SI     SI111816   5.612   1.195   0.406  0.0000  0.0000  0.0000
11817SI     SI111817   3.037   1.399   8.964  0.0000  0.0000  0.0000
11818SI     SI111818   5.871   9.499   0.581  0.0000  0.0000  0.0000
11819SI     SI111819   7.380   0.799   0.160  0.0000  0.0000  0.0000
11820SI     SI111820   5.324   1.914   9.091  0.0000  0.0000  0.0000
11821SI     SI111821   9.580   6.457   8.728  0.0000  0.0000  0.0000
11822SI     SI111822   4.089   1.285   0.216  0.0000  0.0000  0.0000
11823SI     SI111823   3.825   2.280   9.304  0.0000  0.0000  0.0000
11824SI     SI111824   6.095   1.051   8.841  0.0000  0.0000  0.0000
11825SI     SI111825   5.841   8.383   9.364  0.0000  0.0000  0.0000
11826SI     SI111826   9.335   9.537   9.112  0.0000  0.0000  0.0000
11827SI     SI111827   7.569   3.656   0.467  0.0000  0.0000  0.0000
11828SI     SI111828   6.658   4.332   0.632  0.0000  0.0000  0.0000
11829SI     SI111829   8.205   6.217   0.277  0.0000  0.0000  0.0000
11830SI     SI111830   5.261   7.101   9.589  0.0000  0.0000  0.0000
11831SI     SI111831   5.357   5.201   8.795  0.0000  0.0000  0.0000
11832SI     SI111832   0.694   7.519   0.871  0.0000  0.0000  0.0000
11833SI     SI111833   3.083   7.658   1.256  0.0000  0.0000  0.0000
11834SI     SI111834   6.841   2.125   9.363  0.0000  0.0000  0.0000
11835SI     SI111835   3.855   7.811   0.566  0.0000  0.0000  0.0000
11836SI     SI111836   8.197   3.694   0.764  0.0000  0.0000  0.0000
11837SI     SI111837   5.377   5.352   9.279  0.0000  0.0000  0.0000
11838SI     SI111838   2.004   4.400   9.359  0.0000  0.0000  0.0000
11839SI     SI111839   5.364   7.646   1.221  0.0000  0.0000  0.0000
11840SI     SI111840   1.116   0.281   0.385  0.0000  0.0000  0.0000
11841SI     SI111841   8.343   4.838   9.301  0.0000  0.0000  0.0000
11842SI     SI111842   7.564   1.540   0.566  0.0000  0.0000  0.0000
11843SI     SI111843   6.211   8.486   0.265  0.0000  0.0000  0.0000
11844SI     SI111844   8.201   0.198   0.314  0.0000  0.0000  0.0000
11845SI     SI111845   5.780   7.131   0.191  0.0000  0.0000  0.0000
11846SI     SI111846   7.627   2.599   1.001  0.0000  0.0000  0.0000
11847SI     SI111847   0.999   3.988   1.174  0.0000  0.0000  0.0000
11848SI     SI111848   1.115   7.905   8.430  0.0000  0.0000  0.0000
11849SI     SI111849   4.159   9.040   1.158  0.0000  0.0000  0.0000
11850SI     SI111850   7.310   7.257   0.077  0.0000  0.0000  0.0000
11851SI     SI111851   1.534   7.547   9.200  0.0000  0.0000  0.0000
11852SI     SI111852   2.552   9.536   9.066  0.0000  0.0000  0.0000
11853SI     SI111853   2.464   2.046   1.162  0.0000  0.0000  0.0000
11854SI     SI111854   4.582   8.793   8.769  0.0000  0.0000  0.0000
11855SI     SI111855   0.862   3.802   8.535  0.0000  0.0000  0.0000
11856SI     SI111856   4.235   1.758   0.133  0.0000  0.0000  0.0000
11857SI     SI111857   5.824   8.831   8.639  0.0000  0.0000  0.0000
11858SI     SI111858   7.830   0.222   8.523  0.0000  0.0000  0.0000
11859SI     SI111859   1.477   1.368   9.231  0.0000  0.0000  0.0000
11860SI     SI111860   0.485   3.901   1.216  0.0000  0.0000  0.0000
11861SI     SI111861   0.277   7.188   1.136  0.0000  0.0000  0.0000
11862SI     SI111862   6.850   4.733   9.128  0.0000  0.0000  0.0000
11863SI     SI111863   8.863   1.947   1.014  0.0000  0.0000  0.0000
11864SI     SI111864   6.733   7.333   1.172  0.0000  0.0000  0.0000
11865SI     SI111865   5.482   0.943   8.559  0.0000  0.0000  0.0000
11866SI     SI111866   8.776   8.621   1.094  0.0000  0.0000  0.0000
11867SI     SI111867   6.592   7.029   9.260  0.0000  0.0000  0.0000
11868SI     SI111868   6.437   2.959   8.956  0.0000  0.0000  0.0000
11869SI     SI111869   3.479   0.054   9.256  0.0000  0.0000  0.0000
11870SI     SI111870   4.047   7.611   0.446  0.0000  0.0000  0.0000
11871SI     SI111871   2.004   8.748   0.771  0.0000  0.0000  0.0000
11872SI     SI111872   1.331   3.688   8.531  0.0000  0.0000  0.0000
11873SI     SI111873   7.986   7.439   8.360  0.0000  0.0000  0.0000
11874SI     SI111874   6.120   0.244   8.557  0.0000  0.0000  0.0000
11875SI     SI111875   5.796   7.539   8.519  0.0000  0.0000  0.0000
11876SI     SI111876   1.688   4.528   8.609  0.0000  0.0000  0.0000
11877SI     SI111877   1.398   0.672   0.255  0.0000  0.0000  0.0000
11878SI     SI111878   4.700   3.906   8.229  0.0000  0.0000  0.0000
11879SI     SI111879   9.464   2.714   8.331  0.0000  0.0000  0.0000
11880SI     SI111880   6.707   5.183   8.919  0.0000  0.0000  0.0000
11881SI     SI111881   8.945   7.450   9.589  0.0000  0.0000  0.0000
11882SI     SI111882   0.167   0.157   0.549  0.0000  0.0000  0.0000
11883SI     SI111883   0.178   9.439   9.241  0.0000  0.0000  0.0000
11884SI     SI111884   0.387   2.392   0.913  0.0000  0.0000  0.0000
11885SI     SI111885   5.599   1.798   9.201  0.0000  0.0000  0.0000
11886SI     SI111886   9.186   7.323   9.442  0.0000  0.0000  0.0000
11887SI     SI111887   1.177   3.618   0.282  0.0000  0.0000  0.0000
11888SI     SI111888   4.335   2.901   9.079  0.0000  0.0000  0.0000
11889SI     SI111889   1.941   8.295   0.766  0.0000  0.0000  0.0000
11890SI     SI111890   8.547   1.939   1.039  0.0000  0.0000  0.0000
11891SI     SI111891   4.708   5.523   8.631  0.0000  0.0000  0.0000
11892SI     SI111892   2.411   1.647   8.880  0.0000  0.0000  0.0000
11893SI     SI111893   3.343   7.190   8.498  0.0000  0.0000  0.0000
11894SI     SI111894   9.173   8.795   8.385  0.0000  0.0000  0.0000
11895SI     SI111895   7.564   4.747   8.553  0.0000  0.0000  0.0000
11896SI     SI111896   4.958   7.016   9.541  0.0000  0.0000  0.0000
11897SI     SI111897   0.957   4.274   0.747  0.0000  0.0000  0.0000
11898SI     SI111898   3.222   3.615   8.551  0.0000  0.0000  0.0000
11899SI     SI111899   4.337   6.077   8.722  0.0000  0.0000  0.0000
11900SI     SI111900   5.892   7.766   9.580  0.0000  0.0000  0.0000
11901SI     SI111901   8.025   1.309   9.340  0.0000  0.0000  0.0000
11902SI     SI111902   7.879   8.449   0.601  0.0000  0.0000  0.0000
11903SI     SI111903   6.822   7.845   0.121  0.0000  0.0000  0.0000
11904SI     SI111904   2.660   9.551   8.789  0.0000  0.0000  0.0000
11905SI     SI111905   5.118   6.317   8.607  0.0000  0.0000  0.0000
11906SI     SI111906   1.929   2.279   8.502  0.0000  0.0000  0.0000
11907SI     SI111907   3.667   8.488   0.623  0.0000  0.0000  0.0000
11908SI     SI111908   1.192   9.366   8.917  0.0000  0.0000  0.0000
11909SI     SI111909   3.691   5.124   1.015  0.0000  0.0000  0.0000
11910SI     SI111910   8.229   5.748   9.598  0.0000  0.0000  0.0000
11911SI     SI111911   2.685   6.032   0.526  0.0000  0.0000  0.0000
11912SI     SI111912   4.808   8.730   8.317  0.0000  0.0000  0.0000
11913SI     SI111913   9.177   2.680   8.919  0.0000  0.0000  0.0000
11914SI     SI111914   6.408   5.184   9.588  0.0000  0.0000  0.0000
11915SI     SI111915   5.734   4.612   1.096  0.0000  0.0000  0.0000
11916SI     SI111916   8.677   7.946   0.108  0.0000  0.0000  0.0000
11917SI     SI111917   5.021   6.795   9.357  0.0000  0.0000  0.0000
11918SI     SI111918   4.402   7.485   0.770  0.0000  0.0000  0.0000
11919SI     SI111919   7.582   5.935   0.011  0.0000  0.0000  0.0000
11920SI     SI111920   5.606   3.047   8.726  0.0000  0.0000  0.0000
11921SI     SI111921   8.334   5.506   0.533  0.0000  0.0000  0.0000
11922SI     SI111922   7.987   6.134   9.399  0.0000  0.0000  0.0000
11923SI     SI111923   5.610   0.746   8.767  0.0000  0.0000  0.0000
11924SI     SI111924   1.486   9.108   8.666  0.0000  0.0000  0.0000
11925SI     SI111925   9.010   5.516   0.545  0.0000  0.0000  0.0000
11926SI     SI111926   8.041   2.058   8.281  0.0000  0.0000  0.0000
11927SI     SI111927   3.589   2.591   0.663  0.0000  0.0000  0.0000
11928SI     SI111928   4.395   0.833   0.016  0.0000  0.0000  0.0000
11929SI     SI111929   6.822   8.682   0.217  0.0000  0.0000  0.0000
11930SI     SI111930   5.893   0.604   8.724  0.0000  0.0000  0.0000
11931SI     SI111931   0.373   0.007   0.179  0.0000  0.0000  0.0000
11932SI     SI111932   6.651   7.332   8.430  0.0000  0.0000  0.0000
11933SI     SI111933   7.443   4.367   0.714  0.0000  0.0000  0.0000
11934SI     SI111934   6.371   5.320   8.546  0.0000  0.0000  0.0000
11935SI     SI111935   8.668   3.438   9.587  0.0000  0.0000  0.0000
11936SI     SI111936   8.295   6.488   0.941  0.0000  0.0000  0.0000
11937SI     SI111937   7.325   7.357   9.001  0.0000  0.0000  0.0000
11938SI     SI111938   1.880   5.216   0.848  0.0000  0.0000  0.0000
11939SI     SI111939   2.129   9.177   0.566  0.0000  0.0000  0.0000
11940SI     SI111940   1.563   1.212   0.271  0.0000  0.0000  0.0000
11941SI     SI111941   9.456   7.335   9.602  0.0000  0.0000  0.0000
11942SI     SI111942   0.748   3.753   9.124  0.0000  0.0000  0.0000
11943SI     SI111943   1.429   7.260   8.902  0.0000  0.0000  0.0000
11944SI     SI111944   1.375   0.629   0.987  0.0000  0.0000  0.0000
11945SI     SI111945   5.840   6.351   8.928  0.0000  0.0000  0.0000
11946SI     SI111946   0.829   2.870   9.095  0.0000  0.0000  0.0000
11947SI     SI111947   4.294   8.985   8.394  0.0000  0.0000  0.0000
11948SI     SI111948   5.002   1.504   1.303  0.0000  0.0000  0.0000
11949SI     SI111949   3.867   6.719   0.158  0.0000  0.0000  0.0000
11950SI     SI111950   0.450   4.026   8.489  0.0000  0.0000  0.0000
11951SI     SI111951   7.892   5.726   0.755  0.0000  0.0000  0.0000
11952SI     SI111952   0.125   7.399   0.429  0.0000  0.0000  0.0000
11953SI     SI111953   0.233   5.150   0.958  0.0000  0.0000  0.0000
11954SI     SI111954   6.896   5.870   9.552  0.0000  0.0000  0.0000
11955SI     SI111955   2.605   0.391   0.232  0.0000  0.0000  0.0000
11956SI     SI111956   2.822   8.931   1.020  0.0000  0.0000  0.0000
11957SI     SI111957   0.185   7.245   8.566  0.0000  0.0000  0.0000
11958SI     SI111958   2.515   7.165   0.356  0.0000  0.0000  0.0000
11959SI     SI111959   8.939   1.847   0.497  0.0000  0.0000  0.0000
11960SI     SI111960   8.995   4.822   8.868  0.0000  0.0000  0.0000
11961SI     SI111961   1.208   4.580   9.469  0.0000  0.0000  0.0000
11962SI     SI111962   4.985   6.056   8.506  0.0000  0.0000  0.0000
11963SI     SI111963   4.168   9.015   0.671  0.0000  0.0000  0.0000
11964SI     SI111964   6.989   3.673   0.588  0.0000  0.0000  0.0000
11965SI     SI111965   9.595   3.425   9.211  0.0000  0.0000  0.0000
11966SI     SI111966   0.706   5.388   0.908  0.0000  0.0000  0.0000
11967SI     SI111967   0.235   5.597   0.740  0.0000  0.0000  0.0000
11968SI     SI111968   1.238   0.994   9.528  0.0000  0.0000  0.0000
11969SI     SI111969   4.207   0.453   0.257  0.0000  0.0000  0.0000
11970SI     SI111970   4.409   5.914   9.520  0.0000  0.0000  0.0000
11971SI     SI111971   0.435   8.215   0.961  0.0000  0.0000  0.0000
11972SI     SI111972   1.100   6.068   8.895  0.0000  0.0000  0.0000
11973SI     SI111973   0.868   0.820   0.071  0.0000  0.0000  0.0000
11974SI     SI111974   4.462   5.757   0.153  0.0000  0.0000  0.0000
11975SI     SI111975   1.056   8.945   0.480  0.0000  0.0000  0.0000
11976SI     SI111976   3.963   7.716   9.483  0.0000  0.0000  0.0000
11977SI     SI111977   2.962   1.421   0.872  0.0000  0.0000  0.0000
11978SI     SI111978   5.070   7.334   9.205  0.0000  0.0000  0.0000
11979SI     SI111979   6.683   2.971   0.085  0.0000  0.0000  0.0000
11980SI     SI111980   3.056   6.965   1.093  0.0000  0.0000  0.0000
11981SI     SI111981   4.250   4.024   0.986  0.0000  0.0000  0.0000
11982SI     SI111982   0.707   0.412   8.893  0.0000  0.0000  0.0000
11983SI     SI111983   8.280   3.615   8.228  0.0000  0.0000  0.0000
11984SI     SI111984   2.506   6.043   0.066  0.0000  0.0000  0.0000
11985SI     SI111985   4.044   3.003   9.599  0.0000  0.0000  0.0000
11986SI     SI111986   2.184   2.798   1.113  0.0000  0.0000  0.0000
11987SI     SI111987   2.516   5.577   0.800  0.0000  0.0000  0.0000
11988SI     SI111988   8.347   0.266   0.998  0.0000  0.0000  0.0000
11989SI     SI111989   4.180   4.584   8.931  0.0000  0.0000  0.0000
11990SI     SI111990   3.730   3.597   1.387  0.0000  0.0000  0.0000
11991SI     SI111991   0.077   6.770   0.806  0.0000  0.0000  0.0000
11992SI     SI111992   6.689   5.732   8.555  0.0000  0.0000  0.0000
11993SI     SI111993   4.391   2.480   8.687  0.0000  0.0000  0.0000
11994SI     SI111994   9.310   0.487   0.307  0.0000  0.0000  0.0000
11995SI     SI111995   7.382   1.196   9.245  0.0000  0.0000  0.0000
11996SI     SI111996   5.037   2.843   1.183  0.0000  0.0000  0.0000
11997SI     SI111997   0.036   8.868   9.230  0.0000  0.0000  0.0000
11998SI     SI111998   6.378   2.856   8.483  0.0000  0.0000  0.0000
11999SI     SI111999   5.836   0.503   0.112  0.0000  0.0000  0.0000
12000SI     SI112000   6.263   6.448   9.276  0.0000  0.0000  0.0000
12001SI     SI112001   9.420   8.440   0.765  0.0000  0.0000  0.0000
12002SI     SI112002   1.322   1.911   8.460  0.0000  0.0000  0.0000
12003SI     SI112003   8.628   3.256   9.082  0.0000  0.0000  0.0000
12004SI     SI112004   9.023   1.377   0.549  0.0000  0.0000  0.0000
12005SI     SI112005   0.363   8.439   0.288  0.0000  0.0000  0.0000
12006SI     SI112006   3.268   8.500   0.316  0.0000  0.0000  0.0000
12007SI     SI112007   6.853   5.819   8.791  0.0000  0.0000  0.0000
12008SI     SI112008   2.901   8.664   1.169  0.0000  0.0000  0.0000
12009SI     SI112009   7.153   0.796   0.806  0.0000  0.0000  0.0000
12010SI     SI112010   6.577   2.412   9.075  0.0000  0.0000  0.0000
12011SI     SI112011   2.002   3.353   0.611  0.0000  0.0000  0.0000
12012SI     SI112012   2.343   7.214   0.963  0.0000  0.0000  0.0000
12013SI     SI112013   2.355   5.780   8.327  0.0000  0.0000  0.0000
12014SI     SI112014   1.234   1.214   9.126  0.0000  0.0000  0.0000
12015SI     SI112015   8.542   0.589   9.453  0.0000  0.0000  0.0000
12016SI     SI112016   3.537   9.016   1.115  0.0000  0.0000  0.0000
12017SI     SI112017   1.217   9.152   0.314  0.0000  0.0000  0.0000
12018SI     SI112018   4.627   4.667   0.013  0.0000  0.0000  0.0000
12019SI     SI112019   8.291   4.600   9.504  0.0000  0.0000  0.0000
12020SI     SI112020   9.423   2.245   8.412  0.0000  0.0000  0.0000
12021SI     SI112021   7.864   3.565   1.089  0.0000  0.0000  0.0000
12022SI     SI112022   1.842   2.589   8.311  0.0000  0.0000  0.0000
12023SI     SI112023   4.684   4.138   1.237  0.0000  0.0000  0.0000
12024SI     SI112024   1.703   0.258   8.821  0.0000  0.0000  0.0000
12025SI     SI112025   4.931   9.091   8.718  0.0000  0.0000  0.0000
12026SI     SI112026   5.079   4.773   0.089  0.0000  0.0000  0.0000
12027SI     SI112027   5.213   5.622   8.348  0.0000  0.0000  0.0000
12028SI     SI112028   7.190   1.496   8.406  0.0000  0.0000  0.0000
12029SI     SI112029   3.178   7.916   0.772  0.0000  0.0000  0.0000
12030SI     SI112030   7.362   5.671   0.371  0.0000  0.0000  0.0000
12031SI     SI112031   0.261   1.115   9.533  0.0000  0.0000  0.0000
12032SI     SI112032   9.379   9.376   0.883  0.0000  0.0000  0.0000
12033SI     SI112033   8.546   7.499   1.032  0.0000  0.0000  0.0000
12034SI     SI112034   0.763   9.171   0.152  0.0000  0.0000  0.0000
12035SI     SI112035   6.243   2.661   8.681  0.0000  0.0000  0.0000
12036SI     SI112036   4.758   1.296   0.998  0.0000  0.0000  0.0000
12037SI     SI112037   6.919   1.215   0.661  0.0000  0.0000  0.0000
12038SI     SI112038   3.206   0.590   0.884  0.0000  0.0000  0.0000
12039SI     SI112039   0.129   5.242   9.552  0.0000  0.0000  0.0000
12040SI     SI112040   4.009   5.194   8.622  0.0000  0.0000  0.0000
12041SI     SI112041   4.386   7.743   0.169  0.0000  0.0000  0.0000
12042SI     SI112042   4.995   8.481   0.187  0.0000  0.0000  0.0000
12043SI     SI112043   6.979   9.144   0.101  0.0000  0.0000  0.0000
12044SI     SI112044   7.084   8.409   9.308  0.0000  0.0000  0.0000
12045SI     SI112045   0.242   4.441   8.558  0.0000  0.0000  0.0000
12046SI     SI112046   6.530   6.682   8.990  0.0000  0.0000  0.0000
12047SI     SI112047   0.531   1.444   0.566  0.0000  0.0000  0.0000
12048SI     SI112048   2.580   3.278   9.178  0.0000  0.0000  0.0000
12049SI     SI112049   7.970   0.823   9.307  0.0000  0.0000  0.0000
12050SI     SI112050   5.043   5.677   1.017  0.0000  0.0000  0.0000
12051SI     SI112051   5.756   3.478   8.495  0.0000  0.0000  0.0000
12052SI     SI112052   4.400   5.033   0.729  0.0000  0.0000  0.0000
12053SI     SI112053   0.720   2.621   1.144  0.0000  0.0000  0.0000
12054SI     SI112054   8.121   3.129   0.989  0.0000  0.0000  0.0000
12055SI     SI112055   0.343   5.700   0.223  0.0000  0.0000  0.0000
12056SI     SI112056   0.594   0.550   8.640  0.0000  0.0000  0.0000
12057SI     SI112057   7.968   8.485   9.436  0.0000  0.0000  0.0000
12058SI     SI112058   8.537   4.049   8.530  0.0000  0.0000  0.0000
12059SI     SI112059   6.769   5.289   9.325  0.0000  0.0000  0.0000
12060SI     SI112060   8.615   2.099   8.937  0.0000  0.0000  0.0000
12061SI     SI112061   9.175   5.332   0.224  0.0000  0.0000  0.0000
12062SI     SI112062   9.373   1.597   1.073  0.0000  0.0000  0.0000
12063SI     SI112063   2.666   7.718   0.532  0.0000  0.0000  0.0000
12064SI     SI112064   3.135   0.101   8.696  0.0000  0.0000  0.0000
12065SI     SI112065   1.149   1.628   8.859  0.0000  0.0000  0.0000
12066SI     SI112066   7.013   5.194   1.036  0.0000  0.0000  0.0000
12067SI     SI112067   6.255   0.890   9.412  0.0000  0.0000  0.0000
12068SI     SI112068   8.410   6.903   8.669  0.0000  0.0000  0.0000
12069SI     SI112069   9.264   7.861   0.046  0.0000  0.0000  0.0000
12070SI     SI112070   4.094   1.195   0.503  0.0000  0.0000  0.0000
12071SI     SI112071   4.616   4.960   8.876  0.0000  0.0000  0.0000
12072SI     SI112072   0.751   2.022   0.911  0.0000  0.0000  0.0000
12073SI     SI112073   0.436   3.631   0.851  0.0000  0.0000  0.0000
12074SI     SI112074   1.794   5.997   9.127  0.0000  0.0000  0.0000
12075SI     SI112075   9.508   3.627   0.933  0.0000  0.0000  0.0000
12076SI     SI112076   8.880   4.321   0.547  0.0000  0.0000  0.0000
12077SI     SI112077   6.887   6.811   0.604  0.0000  0.0000  0.0000
12078SI     SI112078   1.565   4.008   0.260  0.0000  0.0000  0.0000
12079SI     SI112079   3.607   2.194   0.080  0.0000  0.0000  0.0000
12080SI     SI112080   6.993   6.523   0.261  0.0000  0.0000  0.0000
12081SI     SI112081   2.721   7.208   8.906  0.0000  0.0000  0.0000
12082SI     SI112082   0.228   9.480   0.662  0.0000  0.0000  0.0000
12083SI     SI112083   3.592   5.040   0.111  0.0000  0.0000  0.0000
12084SI     SI112084   5.079   3.482   8.843  0.0000  0.0000  0.0000
12085SI     SI112085   8.455   7.698   8.683  0.0000  0.0000  0.0000
12086SI     SI112086   7.778   5.616   9.387  0.0000  0.0000  0.0000
12087SI     SI112087   5.863   2.059   8.671  0.0000  0.0000  0.0000
12088SI     SI112088   2.588   1.614   0.215  0.0000  0.0000  0.0000
12089SI     SI112089   5.838   9.379   0.309  0.0000  0.0000  0.0000
12090SI     SI112090   8.980   8.681   0.872  0.0000  0.0000  0.0000
12091SI     SI112091   4.697   0.146   9.437  0.0000  0.0000  0.0000
12092SI     SI112092   6.614   6.405   1.167  0.0000  0.0000  0.0000
12093SI     SI112093   8.404   0.564   0.554  0.0000  0.0000  0.0000
12094SI     SI112094   4.449   7.342   0.354  0.0000  0.0000  0.0000
12095SI     SI112095   1.631   4.179   9.532  0.0000  0.0000  0.0000
12096SI     SI112096   1.578   2.673   8.709  0.0000  0.0000  0.0000
12097SI     SI112097   0.269   2.028   0.560  0.0000  0.0000  0.0000
12098SI     SI112098   8.130   2.132   1.163  0.0000  0.0000  0.0000
12099SI     SI112099   6.342   2.844   0.724  0.0000  0.0000  0.0000
12100SI     SI112100   9.186   6.783   8.685  0.0000  0.0000  0.0000
12101SI     SI112101   1.706   3.452   0.562  0.0000  0.0000  0.0000
12102SI     SI112102   4.746   2.099   8.811  0.0000  0.0000  0.0000
12103SI     SI112103   7.407   4.676   0.322  0.0000  0.0000  0.0000
12104SI     SI112104   1.840   4.103   1.081  0.0000  0.0000  0.0000
12105SI     SI112105   1.666   0.780   0.162  0.0000  0.0000  0.0000
12106SI     SI112106   1.908   0.275   0.538  0.0000  0.0000  0.0000
12107SI     SI112107   2.656   5.805   8.313  0.0000  0.0000  0.0000
12108SI     SI112108   1.331   7.704   9.029  0.0000  0.0000  0.0000
12109SI     SI112109   9.148   1.692   8.385  0.0000  0.0000  0.0000
12110SI     SI112110   3.784   7.121   1.009  0.0000  0.0000  0.0000
12111SI     SI112111   6.619   4.814   8.606  0.0000  0.0000  0.0000
12112SI     SI112112   7.695   0.813   0.163  0.0000  0.0000  0.0000
12113SI     SI112113   9.083   4.171   0.139  0.0000  0.0000  0.0000
12114SI     SI112114   0.471   7.490   8.693  0.0000  0.0000  0.0000
12115SI     SI112115   4.177   8.737   9.500  0.0000  0.0000  0.0000
12116SI     SI112116   0.562   2.055   1.140  0.0000  0.0000  0.0000
12117SI     SI112117   6.635   8.280   0.021  0.0000  0.0000  0.0000
12118SI     SI112118   4.391   0.100   9.384  0.0000  0.0000  0.0000
12119SI     SI112119   6.269   8.711   1.269  0.0000  0.0000  0.0000
12120SI     SI112120   6.105   6.761   8.425  0.0000  0.0000  0.0000
12121SI     SI112121   4.896   8.199   8.905  0.0000  0.0000  0.0000
12122SI     SI112122   1.860   6.048   8.630  0.0000  0.0000  0.0000
12123SI     SI112123   3.190   0.105   9.162  0.0000  0.0000  0.0000
12124SI     SI112124   4.650   8.698   9.590  0.0000  0.0000  0.0000
12125SI     SI112125   8.496   7.497   0.222  0.0000  0.0000  0.0000
12126SI     SI112126   4.710   6.784   0.810  0.0000  0.0000  0.0000
12127SI     SI112127   8.603   3.270   8.374  0.0000  0.0000  0.0000
12128SI     SI112128   7.767   6.858   0.529  0.0000  0.0000  0.0000
12129SI     SI112129   3.200   5.008   8.521  0.0000  0.0000  0.0000
12130SI     SI112130   1.726   1.691   0.167  0.0000  0.0000  0.0000
12131SI     SI112131   2.791   5.852   9.135  0.0000  0.0000  0.0000
12132SI     SI112132   2.280   8.942   1.124  0.0000  0.0000  0.0000
12133SI     SI112133   7.677   6.622   9.044  0.0000  0.0000  0.0000
12134SI     SI112134   5.173   9.401   0.830  0.0000  0.0000  0.0000
12135SI     SI112135   7.209   3.405   0.217  0.0000  0.0000  0.0000
12136SI     SI112136   2.370   8.976   0.106  0.0000  0.0000  0.0000
12137SI     SI112137   6.704   4.742   0.014  0.0000  0.0000  0.0000
12138SI     SI112138   4.053   3.640   8.351  0.0000  0.0000  0.0000
12139SI     SI112139   4.146   2.488   9.004  0.0000  0.0000  0.0000
12140SI     SI112140   9.558   8.823   8.932  0.0000  0.0000  0.0000
12141SI     SI112141   3.940   3.185   0.860  0.0000  0.0000  0.0000
12142SI     SI112142   5.675   3.827   0.471  0.0000  0.0000  0.0000
12143SI     SI112143   1.507   2.362   1.175  0.0000  0.0000  0.0000
12144SI     SI112144   6.028   0.372   9.519  0.0000  0.0000  0.0000
12145SI     SI112145   2.646   0.779   8.717  0.0000  0.0000  0.0000
12146SI     SI112146   6.109   8.089   0.052  0.0000  0.0000  0.0000
12147SI     SI112147   5.554   6.431   0.488  0.0000  0.0000  0.0000
12148SI     SI112148   7.029   3.997   8.775  0.0000  0.0000  0.0000
12149SI     SI112149   6.092   6.286   1.320  0.0000  0.0000  0.0000
12150SI     SI112150   5.150   8.896   8.839  0.0000  0.0000  0.0000
12151SI     SI112151   9.604   4.070   1.191  0.0000  0.0000  0.0000
12152SI     SI112152   8.629   1.289   1.360  0.0000  0.0000  0.0000
12153SI     SI112153   1.171   2.373   8.966  0.0000  0.0000  0.0000
12154SI     SI112154   3.355   5.458   0.365  0.0000  0.0000  0.0000
12155SI     SI112155   2.211   3.762   0.194  0.0000  0.0000  0.0000
12156SI     SI112156   4.666   7.812   9.023  0.0000  0.0000  0.0000
12157SI     SI112157   7.524   5.380   0.942  0.0000  0.0000  0.0000
12158SI     SI112158   8.879   6.886   0.011  0.0000  0.0000  0.0000
12159SI     SI112159   9.112   9.474   8.720  0.0000  0.0000  0.0000
12160SI     SI112160   4.041   9.508   9.298  0.0000  0.0000  0.0000
12161SI     SI112161   9.064   6.306   8.557  0.0000  0.0000  0.0000
12162SI     SI112162   5.615   7.386   0.148  0.0000  0.0000  0.0000
12163SI     SI112163   0.628   1.617   0.318  0.0000  0.0000  0.0000
12164SI     SI112164   9.464   0.199   0.620  0.0000  0.0000  0.0000
12165SI     SI112165   4.162   6.809   0.157  0.0000  0.0000  0.0000
12166SI     SI112166   0.194   9.388   8.929  0.0000  0.0000  0.0000
12167SI     SI112167   6.112   8.938   8.706  0.0000  0.0000  0.0000
12168SI     SI112168   1.900   7.956   0.399  0.0000  0.0000  0.0000
12169SI     SI112169   2.960   0.812   0.144  0.0000  0.0000  0.0000
12170SI     SI112170   5.219   3.910   0.691  0.0000  0.0000  0.0000
12171SI     SI112171   1.485   1.556   8.388  0.0000  0.0000  0.0000
12172SI     SI112172   1.693   1.069   0.061  0.0000  0.0000  0.0000
12173SI     SI112173   1.904   0.005   8.271  0.0000  0.0000  0.0000
12174SI     SI112174   5.883   2.523   0.754  0.0000  0.0000  0.0000
12175SI     SI112175   6.579   3.687   0.243  0.0000  0.0000  0.0000
12176SI     SI112176   4.963   8.669   9.546  0.0000  0.0000  0.0000
12177SI     SI112177   0.559   8.048   9.470  0.0000  0.0000  0.0000
12178SI     SI112178   8.625   6.999   0.827  0.0000  0.0000  0.0000
12179SI     SI112179   6.399   8.291   0.419  0.0000  0.0000  0.0000
12180SI     SI112180   3.304   1.031   8.814  0.0000  0.0000  0.0000
12181SI     SI112181   2.643   7.850   9.073  0.0000  0.0000  0.0000
12182SI     SI112182   9.273   3.027   9.267  0.0000  0.0000  0.0000
12183SI     SI112183   0.608   3.072   9.200  0.0000  0.0000  0.0000
12184SI     SI112184   9.160   5.634   8.352  0.0000  0.0000  0.0000
12185SI     SI112185   2.012   1.618   0.561  0.0000  0.0000  0.0000
12186SI     SI112186   4.323   5.909   0.360  0.0000  0.0000  0.0000
12187SI     SI112187   0.788   2.024   9.535  0.0000  0.0000  0.0000
12188SI     SI112188   3.939   8.018   9.556  0.0000  0.0000  0.0000
12189SI     SI112189   8.461   4.110   9.101  0.0000  0.0000  0.0000
12190SI     SI112190   6.572   8.228   8.747  0.0000  0.0000  0.0000
12191SI     SI112191   9.187   6.515   9.098  0.0000  0.0000  0.0000
12192SI     SI112192   5.656   4.614   8.892  0.0000  0.0000  0.0000
12193SI     SI112193   1.649   8.351   9.072  0.0000  0.0000  0.0000
12194SI     SI112194   2.241   5.472   9.094  0.0000  0.0000  0.0000
12195SI     SI112195   0.770   9.025   1.016  0.0000  0.0000  0.0000
12196SI     SI112196   6.746   6.862   1.022  0.0000  0.0000  0.0000
12197SI     SI112197   3.308   2.070   9.298  0.0000  0.0000  0.0000
12198SI     SI112198   2.963   7.575   9.428  0.0000  0.0000  0.0000
12199SI     SI112199   8.248   7.299   8.422  0.0000  0.0000  0.0000
12200SI     SI112200   5.474   2.875   9.112  0.0000  0.0000  0.0000
12201SI     SI112201   1.699   0.288   0.762  0.0000  0.0000  0.0000
12202SI     SI112202   0.214   0.332   8.918  0.0000  0.0000  0.0000
12203SI     SI112203   0.177   0.330   8.404  0.0000  0.0000  0.0000
12204SI     SI112204   1.186   3.510   9.156  0.0000  0.0000  0.0000
12205SI     SI112205   8.474   3.361   0.852  0.0000  0.0000  0.0000
12206SI     SI112206   2.074   5.077   8.986  0.0000  0.0000  0.0000
12207SI     SI112207   3.462   9.032   9.417  0.0000  0.0000  0.0000
12208SI     SI112208   8.866   5.085   0.593  0.0000  0.0000  0.0000
12209SI     SI112209   1.858   8.156   0.164  0.0000  0.0000  0.0000
12210SI     SI112210   6.151   8.529   8.635  0.0000  0.0000  0.0000
12211SI     SI112211   5.002   8.173   0.633  0.0000  0.0000  0.0000
12212SI     SI112212   1.477   5.399   1.079  0.0000  0.0000  0.0000
12213SI     SI112213   2.435   6.347   9.340  0.0000  0.0000  0.0000
12214SI     SI112214   8.140   2.998   0.526  0.0000  0.0000  0.0000
12215SI     SI112215   0.288   0.483   8.656  0.0000  0.0000  0.0000
12216SI     SI112216   9.444   3.383   0.016  0.0000  0.0000  0.0000
12217SI     SI112217   2.925   9.102   0.237  0.0000  0.0000  0.0000
12218SI     SI112218   3.453   1.664   9.000  0.0000  0.0000  0.0000
12219SI     SI112219   2.487   7.357   0.112  0.0000  0.0000  0.0000
12220SI     SI112220   1.589   3.203   9.119  0.0000  0.0000  0.0000
12221SI     SI112221   6.313   1.966   8.476  0.0000  0.0000  0.0000
12222SI     SI112222   4.502   4.523   1.277  0.0000  0.0000  0.0000
12223SI     SI112223   4.826   3.786   9.542  0.0000  0.0000  0.0000
12224SI     SI112224   3.341   6.032   9.197  0.0000  0.0000  0.0000
12225SI     SI112225   3.827   6.871   8.967  0.0000  0.0000  0.0000
12226SI     SI112226   8.238   3.926   9.023  0.0000  0.0000  0.0000
12227SI     SI112227   4.876   1.968   1.158  0.0000  0.0000  0.0000
12228SI     SI112228   7.457   3.132   9.291  0.0000  0.0000  0.0000
12229SI     SI112229   8.240   0.864   9.154  0.0000  0.0000  0.0000
12230SI     SI112230   8.615   1.485   0.812  0.0000  0.0000  0.0000
12231SI     SI112231   3.957   8.787   0.370  0.0000  0.0000  0.0000
12232SI     SI112232   1.958   1.841   0.772  0.0000  0.0000  0.0000
12233SI     SI112233   8.844   7.340   9.120  0.0000  0.0000  0.0000
12234SI     SI112234   0.863   0.085   9.528  0.0000  0.0000  0.0000
12235SI     SI112235   1.940   4.522   1.061  0.0000  0.0000  0.0000
12236SI     SI112236   4.196   8.275   1.231  0.0000  0.0000  0.0000
12237SI     SI112237   9.029   1.856   1.275  0.0000  0.0000  0.0000
12238SI     SI112238   1.790   6.462   8.886  0.0000  0.0000  0.0000
12239SI     SI112239   3.525   2.644   1.170  0.0000  0.0000  0.0000
12240SI     SI112240   6.803   8.174   0.681  0.0000  0.0000  0.0000
12241SI     SI112241   4.378   9.392   9.444  0.0000  0.0000  0.0000
12242SI     SI112242   5.533   9.177   1.060  0.0000  0.0000  0.0000
12243SI     SI112243   5.391   9.108   8.821  0.0000  0.0000  0.0000
12244SI     SI112244   2.218   4.579   8.411  0.0000  0.0000  0.0000
12245SI     SI112245   5.314   1.457   0.786  0.0000  0.0000  0.0000
12246SI     SI112246   9.332   8.884   1.060  0.0000  0.0000  0.0000
12247SI     SI112247   8.747   3.665   1.460  0.0000  0.0000  0.0000
12248SI     SI112248   3.732   9.447   0.357  0.0000  0.0000  0.0000
12249SI     SI112249   2.313   1.760   8.423  0.0000  0.0000  0.0000
12250SI     SI112250   2.582   1.260   8.928  0.0000  0.0000  0.0000
12251SI     SI112251   8.803   5.625   9.521  0.0000  0.0000  0.0000
12252SI     SI112252   0.774   6.769   8.686  0.0000  0.0000  0.0000
12253SI     SI112253   8.056   5.698   8.813  0.0000  0.0000  0.0000
12254SI     SI112254   2.139   2.450   0.011  0.0000  0.0000  0.0000
12255SI     SI112255   1.663   0.561   0.912  0.0000  0.0000  0.0000
12256SI     SI112256   6.070   7.820   1.156  0.0000  0.0000  0.0000
12257SI     SI112257   5.584   5.254   0.643  0.0000  0.0000  0.0000
12258SI     SI112258   1.166   7.487   0.585  0.0000  0.0000  0.0000
12259SI     SI112259   7.906   1.922   8.937  0.0000  0.0000  0.0000
12260SI     SI112260   7.290   8.722   0.280  0.0000  0.0000  0.0000
12261SI     SI112261   6.392   8.150   0.158  0.0000  0.0000  0.0000
12262SI     SI112262   7.318   7.793   0.101  0.0000  0.0000  0.0000
12263SI     SI112263   8.574   5.515   9.096  0.0000  0.0000  0.0000
12264SI     SI112264   9.251   8.583   1.000  0.0000  0.0000  0.0000
12265SI     SI112265   7.411   0.389   0.503  0.0000  0.0000  0.0000
12266SI     SI112266   1.802   0.048   0.935  0.0000  0.0000  0.0000
12267SI     SI112267   6.721   6.744   8.758  0.0000  0.0000  0.0000
12268SI     SI112268   4.852   1.208   0.542  0.0000  0.0000  0.0000
12269SI     SI112269   9.297   8.858   0.424  0.0000  0.0000  0.0000
12270SI     SI112270   3.075   9.130   8.550  0.0000  0.0000  0.0000
12271SI     SI112271   3.704   0.581   0.676  0.0000  0.0000  0.0000
12272SI     SI112272   4.330   4.596   8.651  0.0000  0.0000  0.0000
12273SI     SI112273   5.439   0.758   0.109  0.0000  0.0000  0.0000
12274SI     SI112274   0.872   5.561   1.109  0.0000  0.0000  0.0000
12275SI     SI112275   4.681   2.910   8.354  0.0000  0.0000  0.0000
12276SI     SI112276   4.555   6.930   9.128  0.0000  0.0000  0.0000
12277SI     SI112277   3.425   0.015   8.649  0.0000  0.0000  0.0000
12278SI     SI112278   2.585   5.026   8.441  0.0000  0.0000  0.0000
12279SI     SI112279   2.670   3.720   8.524  0.0000  0.0000  0.0000
12280SI     SI112280   3.568   6.261   0.684  0.0000  0.0000  0.0000
12281SI     SI112281   7.613   1.721   1.040  0.0000  0.0000  0.0000
12282SI     SI112282   8.178   7.868   1.006  0.0000  0.0000  0.0000
12283SI     SI112283   5.285   2.211   0.036  0.0000  0.0000  0.0000
12284SI     SI112284   7.644   2.879   0.461  0.0000  0.0000  0.0000
12285SI     SI112285   1.456   0.269   0.586  0.0000  0.0000  0.0000
12286SI     SI112286   7.772   2.819   9.258  0.0000  0.0000  0.0000
12287SI     SI112287   0.101   8.733   8.469  0.0000  0.0000  0.0000
12288SI     SI112288   2.456   7.820   8.575  0.0000  0.0000  0.0000
12289SI     SI112289   4.668   2.544   1.244  0.0000  0.0000  0.0000
12290SI     SI112290   8.191   1.286   8.826  0.0000  0.0000  0.0000
12291SI     SI112291   7.999   0.547   8.820  0.0000  0.0000  0.0000
12292SI     SI112292   3.341   0.456   8.425  0.0000  0.0000  0.0000
12293SI     SI112293   2.307   0.973   1.055  0.0000  0.0000  0.0000
12294SI     SI112294   7.823   0.174   1.068  0.0000  0.0000  0.0000
12295SI     SI112295   6.852   3.938   9.554  0.0000  0.0000  0.0000
12296SI     SI112296   8.614   9.189   1.122  0.0000  0.0000  0.0000
12297SI     SI112297   1.925   4.127   9.462  0.0000  0.0000  0.0000
12298SI     SI112298   0.870   5.898   0.212  0.0000  0.0000  0.0000
12299SI     SI112299   4.105   4.073   0.114  0.0000  0.0000  0.0000
12300SI     SI112300   6.130   7.613   8.325  0.0000  0.0000  0.0000
12301SI     SI112301   6.030   9.434   8.797  0.0000  0.0000  0.0000
12302SI     SI112302   5.054   1.068   0.351  0.0000  0.0000  0.0000
12303SI     SI112303   4.631   7.331   8.982  0.0000  0.0000  0.0000
12304SI     SI112304   9.286   8.678   8.983  0.0000  0.0000  0.0000
12305SI     SI112305   7.089   8.006   0.110  0.0000  0.0000  0.0000
12306SI     SI112306   6.823   5.809   0.516  0.0000  0.0000  0.0000
12307SI     SI112307   6.020   0.957   1.044  0.0000  0.0000  0.0000
12308SI     SI112308   4.133   4.416   0.700  0.0000  0.0000  0.0000
12309SI     SI112309   2.598   5.387   1.028  0.0000  0.0000  0.0000
12310SI     SI112310   8.817   2.203   9.511  0.0000  0.0000  0.0000
12311SI     SI112311   6.050   3.264   1.173  0.0000  0.0000  0.0000
12312SI     SI112312   8.661   8.520   0.077  0.0000  0.0000  0.0000
12313SI     SI112313   7.170   6.771   9.401  0.0000  0.0000  0.0000
12314SI     SI112314   3.654   7.416   0.080  0.0000  0.0000  0.0000
12315SI     SI112315   8.292   3.307   0.146  0.0000  0.0000  0.0000
12316SI     SI112316   7.552   4.424   8.760  0.0000  0.0000  0.0000
12317SI     SI112317   3.619   4.564   0.993  0.0000  0.0000  0.0000
12318SI     SI112318   5.425   3.524   0.115  0.0000  0.0000  0.0000
12319SI     SI112319   0.272   5.325   8.533  0.0000  0.0000  0.0000
12320SI     SI112320   0.460   0.411   0.330  0.0000  0.0000  0.0000
12321SI     SI112321   9.457   4.320   0.745  0.0000  0.0000  0.0000
12322SI     SI112322   0.441   1.274   1.269  0.0000  0.0000  0.0000
12323SI     SI112323   7.730   3.489   1.360  0.0000  0.0000  0.0000
12324SI     SI112324   4.794   4.207   0.095  0.0000  0.0000  0.0000
12325SI     SI112325   2.685   6.240   9.495  0.0000  0.0000  0.0000
12326SI     SI112326   4.537   7.036   0.333  0.0000  0.0000  0.0000
12327SI     SI112327   5.883   7.473   9.099  0.0000  0.0000  0.0000
12328SI     SI112328   7.161   4.329   9.325  0.0000  0.0000  0.0000
12329SI     SI112329   7.299   4.073   8.934  0.0000  0.0000  0.0000
12330SI     SI112330   3.370   7.261   9.273  0.0000  0.0000  0.0000
12331SI     SI112331   9.232   1.141   0.958  0.0000  0.0000  0.0000
12332SI     SI112332   2.708   4.169   0.444  0.0000  0.0000  0.0000
12333SI     SI112333   8.194   1.966   8.540  0.0000  0.0000  0.0000
12334SI     SI112334   3.328   1.415   9.069  0.0000  0.0000  0.0000
12335SI     SI112335   8.787   0.971   9.222  0.0000  0.0000  0.0000
12336SI     SI112336   8.404   2.215   1.040  0.0000  0.0000  0.0000
12337SI     SI112337   2.645   1.772   8.736  0.0000  0.0000  0.0000
12338SI     SI112338   6.565   4.484   0.366  0.0000  0.0000  0.0000
12339SI     SI112339   9.556   1.618   0.161  0.0000  0.0000  0.0000
12340SI     SI112340   9.439   5.673   0.539  0.0000  0.0000  0.0000
12341SI     SI112341   4.884   6.556   8.974  0.0000  0.0000  0.0000
12342SI     SI112342   0.347   4.098   9.401  0.0000  0.0000  0.0000
12343SI     SI112343   8.564   5.572   0.922  0.0000  0.0000  0.0000
12344SI     SI112344   2.402   0.280   0.635  0.0000  0.0000  0.0000
12345SI     SI112345   1.599   2.099   0.810  0.0000  0.0000  0.0000
12346SI     SI112346   5.456   8.310   0.133  0.0000  0.0000  0.0000
12347SI     SI112347   5.841   4.191   9.476  0.0000  0.0000  0.0000
12348SI     SI112348   0.424   2.673   1.063  0.0000  0.0000  0.0000
12349SI     SI112349   6.454   6.155   0.007  0.0000  0.0000  0.0000
12350SI     SI112350   6.429   1.627   0.990  0.0000  0.0000  0.0000
12351SI     SI112351   5.288   9.044   1.164  0.0000  0.0000  0.0000
12352SI     SI112352   8.133   4.340   0.487  0.0000  0.0000  0.0000
12353SI     SI112353   6.453   3.952   8.830  0.0000  0.0000  0.0000
12354SI     SI112354   4.637   2.844   8.652  0.0000  0.0000  0.0000
12355SI     SI112355   5.059   4.172   8.526  0.0000  0.0000  0.0000
12356SI     SI112356   9.319   2.501   0.481  0.0000  0.0000  0.0000
12357SI     SI112357   1.283   8.956   0.098  0.0000  0.0000  0.0000
12358SI     SI112358   8.928   1.498   0.823  0.0000  0.0000  0.0000
12359SI     SI112359   2.707   3.566   0.030  0.0000  0.0000  0.0000
12360SI     SI112360   4.170   3.890   8.784  0.0000  0.0000  0.0000
12361SI     SI112361   7.622   5.861   9.334  0.0000  0.0000  0.0000
12362SI     SI112362   9.251   6.777   1.075  0.0000  0.0000  0.0000
12363SI     SI112363   7.451   5.806   8.453  0.0000  0.0000  0.0000
12364SI     SI112364   8.518   5.868   0.300  0.0000  0.0000  0.0000
12365SI     SI112365   5.042   8.894   0.853  0.0000  0.0000  0.0000
12366SI     SI112366   6.806   7.332   0.611  0.0000  0.0000  0.0000
12367SI     SI112367   2.222   9.412   0.403  0.0000  0.0000  0.0000
12368SI     SI112368   2.765   8.262   8.801  0.0000  0.0000  0.0000
12369SI     SI112369   2.704   6.458   0.310  0.0000  0.0000  0.0000
12370SI     SI112370   1.613   4.385   0.747  0.0000  0.0000  0.0000
12371SI     SI112371   6.562   7.184   0.601  0.0000  0.0000  0.0000
12372SI     SI112372   9.335   1.718   9.025  0.0000  0.0000  0.0000
12373SI     SI112373   1.163   1.697   9.519  0.0000  0.0000  0.0000
12374SI     SI112374   4.630   5.730   9.102  0.0000  0.0000  0.0000
12375SI     SI112375   7.808   1.648   9.400  0.0000  0.0000  0.0000
12376SI     SI112376   9.327   0.734   0.660  0.0000  0.0000  0.0000
12377SI     SI112377   1.619   9.536   0.298  0.0000  0.0000  0.0000
12378SI     SI112378   7.342   3.126   0.163  0.0000  0.0000  0.0000
12379SI     SI112379   8.184   7.839   8.398  0.0000  0.0000  0.0000
12380SI     SI112380   8.424   1.850   8.951  0.0000  0.0000  0.0000
12381SI     SI112381   6.890   9.535   0.514  0.0000  0.0000  0.0000
12382SI     SI112382   9.151   9.189   8.837  0.0000  0.0000  0.0000
12383SI     SI112383   0.766   8.155   8.444  0.0000  0.0000  0.0000
12384SI     SI112384   1.048   6.593   9.522  0.0000  0.0000  0.0000
12385SI     SI112385   1.076   3.530   0.776  0.0000  0.0000  0.0000
12386SI     SI112386   7.998   3.726   0.280  0.0000  0.0000  0.0000
12387SI     SI112387   6.162   4.836   9.518  0.0000  0.0000  0.0000
12388SI     SI112388   2.275   8.308   0.168  0.0000  0.0000  0.0000
12389SI     SI112389   2.512   6.880   0.257  0.0000  0.0000  0.0000
12390SI     SI112390   4.305   3.916   9.533  0.0000  0.0000  0.0000
12391SI     SI112391   6.763   7.590   0.433  0.0000  0.0000  0.0000
12392SI     SI112392   4.925   0.907   9.508  0.0000  0.0000  0.0000
12393SI     SI112393   5.595   9.558   8.566  0.0000  0.0000  0.0000
12394SI     SI112394   7.070   3.715   9.187  0.0000  0.0000  0.0000
12395SI     SI112395   4.387   3.394   9.557  0.0000  0.0000  0.0000
12396SI     SI112396   4.962   7.962   0.862  0.0000  0.0000  0.0000
12397SI     SI112397   4.781   9.254   9.231  0.0000  0.0000  0.0000
12398SI     SI112398   2.322   8.432   1.002  0.0000  0.0000  0.0000
12399SI     SI112399   3.491   8.160   1.049  0.0000  0.0000  0.0000
12400SI     SI112400   2.823   5.346   0.565  0.0000  0.0000  0.0000
12401SI     SI112401   8.686   2.182   0.193  0.0000  0.0000  0.0000
12402SI     SI112402   5.156   4.471   8.549  0.0000  0.0000  0.0000
12403SI     SI112403   8.424   5.044   8.881  0.0000  0.0000  0.0000
12404SI     SI112404   5.095   0.471   0.749  0.0000  0.0000  0.0000
12405SI     SI112405   3.552   6.766   1.031  0.0000  0.0000  0.0000
12406SI     SI112406   0.224   3.863   9.266  0.0000  0.0000  0.0000
12407SI     SI112407   2.614   2.459   8.593  0.0000  0.0000  0.0000
12408SI     SI112408   4.222   8.770   1.249  0.0000  0.0000  0.0000
12409SI     SI112409   8.908   3.014   0.073  0.0000  0.0000  0.0000
12410SI     SI112410   3.720   5.999   9.554  0.0000  0.0000  0.0000
12411SI     SI112411   1.612   9.145   0.898  0.0000  0.0000  0.0000
12412SI     SI112412   1.845   3.312   8.976  0.0000  0.0000  0.0000
12413SI     SI112413   5.837   8.519   8.642  0.0000  0.0000  0.0000
12414SI     SI112414   0.318   3.117   9.583  0.0000  0.0000  0.0000
12415SI     SI112415   7.777   6.062   0.507  0.0000  0.0000  0.0000
12416SI     SI112416   2.855   0.153   0.905  0.0000  0.0000  0.0000
12417SI     SI112417   9.033   1.109   0.715  0.0000  0.0000  0.0000
12418SI     SI112418   2.151   0.567   0.184  0.0000  0.0000  0.0000
12419SI     SI112419   6.412   7.099   0.188  0.0000  0.0000  0.0000
12420SI     SI112420   5.547   2.521   9.381  0.0000  0.0000  0.0000
12421SI     SI112421   5.448   2.259   8.721  0.0000  0.0000  0.0000
12422SI     SI112422   0.548   6.251   8.515  0.0000  0.0000  0.0000
12423SI     SI112423   5.113   0.019   9.145  0.0000  0.0000  0.0000
12424SI     SI112424   8.190   8.664   0.221  0.0000  0.0000  0.0000
12425SI     SI112425   3.623   7.882   0.979  0.0000  0.0000  0.0000
12426SI     SI112426   0.341   4.917   0.265  0.0000  0.0000  0.0000
12427SI     SI112427   7.250   2.035   9.207  0.0000  0.0000  0.0000
12428SI     SI112428   4.019   8.090   8.582  0.0000  0.0000  0.0000
12429SI     SI112429   4.041   2.955   9.066  0.0000  0.0000  0.0000
12430SI     SI112430   1.113   4.685   0.834  0.0000  0.0000  0.0000
12431SI     SI112431   7.440   3.921   0.539  0.0000  0.0000  0.0000
12432SI     SI112432   7.188   6.397   0.740  0.0000  0.0000  0.0000
12433SI     SI112433   5.215   9.490   0.528  0.0000  0.0000  0.0000
12434SI     SI112434   5.260   2.059   8.591  0.0000  0.0000  0.0000
12435SI     SI112435   0.100   8.290   0.350  0.0000  0.0000  0.0000
12436SI     SI112436   7.520   6.302   1.031  0.0000  0.0000  0.0000
12437SI     SI112437   7.156   3.032   9.318  0.0000  0.0000  0.0000
12438SI     SI112438   5.398   5.371   8.383  0.0000  0.0000  0.0000
12439SI     SI112439   3.149   9.103   1.377  0.0000  0.0000  0.0000
12440SI     SI112440   2.752   4.420   0.056  0.0000  0.0000  0.0000
12441SI     SI112441   6.086   5.656   9.196  0.0000  0.0000  0.0000
12442SI     SI112442   6.879   0.406   9.162  0.0000  0.0000  0.0000
12443SI     SI112443   5.255   6.463   0.426  0.0000  0.0000  0.0000
12444SI     SI112444   0.078   2.288   1.232  0.0000  0.0000  0.0000
12445SI     SI112445   1.927   1.565   8.649  0.0000  0.0000  0.0000
12446SI     SI112446   5.747   7.816   8.623  0.0000  0.0000  0.0000
12447SI     SI112447   3.715   3.825   8.533  0.0000  0.0000  0.0000
12448SI     SI112448   8.117   6.179   8.759  0.0000  0.0000  0.0000
12449SI     SI112449   1.005   9.203   0.994  0.0000  0.0000  0.0000
12450SI     SI112450   4.685   7.010   0.614  0.0000  0.0000  0.0000
12451SI     SI112451   4.111   1.936   9.164  0.0000  0.0000  0.0000
12452SI     SI112452   8.827   3.972   8.555  0.0000  0.0000  0.0000
12453SI     SI112453   4.416   0.768   8.689  0.0000  0.0000  0.0000
12454SI     SI112454   1.359   9.587   8.533  0.0000  0.0000  0.0000
12455SI     SI112455   8.702   4.520   8.502  0.0000  0.0000  0.0000
12456SI     SI112456   7.927   4.002   8.431  0.0000  0.0000  0.0000
12457SI     SI112457   5.710   9.012   0.860  0.0000  0.0000  0.0000
12458SI     SI112458   3.327   4.922   9.234  0.0000  0.0000  0.0000
12459SI     SI112459   4.851   1.678   8.970  0.0000  0.0000  0.0000
12460SI     SI112460   6.481   8.996   9.581  0.0000  0.0000  0.0000
12461SI     SI112461   6.756   0.154   9.046  0.0000  0.0000  0.0000
12462SI     SI112462   6.366   4.104   8.387  0.0000  0.0000  0.0000
12463SI     SI112463   3.160   0.564   9.409  0.0000  0.0000  0.0000
12464SI     SI112464   0.582   0.094   0.817  0.0000  0.0000  0.0000
12465SI     SI112465   5.888   7.148   8.384  0.0000  0.0000  0.0000
12466SI     SI112466   2.525   1.976   9.450  0.0000  0.0000  0.0000
12467SI     SI112467   3.956   2.306   0.460  0.0000  0.0000  0.0000
12468SI     SI112468   1.041   7.000   9.246  0.0000  0.0000  0.0000
12469SI     SI112469   9.144   8.004   9.399  0.0000  0.0000  0.0000
12470SI     SI112470   7.165   1.018   0.097  0.0000  0.0000  0.0000
12471SI     SI112471   8.647   4.306   8.966  0.0000  0.0000  0.0000
12472SI     SI112472   8.792   0.515   0.730  0.0000  0.0000  0.0000
12473SI     SI112473   9.060   0.377   9.560  0.0000  0.0000  0.0000
12474SI     SI112474   7.537   2.963   8.780  0.0000  0.0000  0.0000
12475SI     SI112475   8.121   0.077   1.107  0.0000  0.0000  0.0000
12476SI     SI112476   1.927   1.403   0.949  0.0000  0.0000  0.0000
12477SI     SI112477   1.043   1.268   0.288  0.0000  0.0000  0.0000
12478SI     SI112478   8.495   3.649   0.749  0.0000  0.0000  0.0000
12479SI     SI112479   0.299   7.642   0.511  0.0000  0.0000  0.0000
12480SI     SI112480   9.444   9.386   0.041  0.0000  0.0000  0.0000
12481SI     SI112481   8.509   6.396   9.327  0.0000  0.0000  0.0000
12482SI     SI112482   2.784   7.206   9.397  0.0000  0.0000  0.0000
12483SI     SI112483   6.569   7.529   8.635  0.0000  0.0000  0.0000
12484SI     SI112484   6.956   7.841   9.095  0.0000  0.0000  0.0000
12485SI     SI112485   4.604   4.368   1.029  0.0000  0.0000  0.0000
12486SI     SI112486   3.525   3.446   1.232  0.0000  0.0000  0.0000
12487SI     SI112487   2.560   7.416   9.304  0.0000  0.0000  0.0000
12488SI     SI112488   2.222   4.726   8.690  0.0000  0.0000  0.0000
12489SI     SI112489   9.098   2.344   9.584  0.0000  0.0000  0.0000
12490SI     SI112490   7.881   6.193   8.937  0.0000  0.0000  0.0000
12491SI     SI112491   5.821   9.102   9.373  0.0000  0.0000  0.0000
12492SI     SI112492   7.158   5.682   0.773  0.0000  0.0000  0.0000
12493SI     SI112493   3.126   6.092   8.395  0.0000  0.0000  0.0000
12494SI     SI112494   8.182   9.481   8.769  0.0000  0.0000  0.0000
12495SI     SI112495   0.115   7.888   0.973  0.0000  0.0000  0.0000
12496SI     SI112496   0.530   7.382   0.095  0.0000  0.0000  0.0000
12497SI     SI112497   0.216   5.989   1.121  0.0000  0.0000  0.0000
12498SI     SI112498   9.123   1.423   9.362  0.0000  0.0000  0.0000
12499SI     SI112499   1.382   0.961   8.741  0.0000  0.0000  0.0000
12500SI     SI112500   2.110   3.523   9.339  0.0000  0.0000  0.0000
12501SI     SI112501   3.525   5.880   8.432  0.0000  0.0000  0.0000
12502SI     SI112502   6.614   0.591   1.073  0.0000  0.0000  0.0000
12503SI     SI112503   7.636   8.702   8.953  0.0000  0.0000  0.0000
12504SI     SI112504   7.582   6.538   8.615  0.0000  0.0000  0.0000
12505SI     SI112505   3.332   4.595   9.573  0.0000  0.0000  0.0000
12506SI     SI112506   5.257   1.280   9.460  0.0000  0.0000  0.0000
12507SI     SI112507   8.195   6.338   0.557  0.0000  0.0000  0.0000
12508SI     SI112508   2.125   2.934   0.266  0.0000  0.0000  0.0000
12509SI     SI112509   3.643   3.513   0.506  0.0000  0.0000  0.0000
12510SI     SI112510   5.035   8.136   1.101  0.0000  0.0000  0.0000
12511SI     SI112511   6.512   6.222   0.508  0.0000  0.0000  0.0000
12512SI     SI112512   8.489   2.266   0.756  0.0000  0.0000  0.0000
12513SI     SI112513   0.023   3.355   8.480  0.0000  0.0000  0.0000
12514SI     SI112514   4.257   5.378   0.030  0.0000  0.0000  0.0000
12515SI     SI112515   0.708   6.484   8.780  0.0000  0.0000  0.0000
12516SI     SI112516   6.350   6.018   0.695  0.0000  0.0000  0.0000
12517SI     SI112517   3.797   0.269   8.637  0.0000  0.0000  0.0000
12518SI     SI112518   8.106   1.629   0.222  0.0000  0.0000  0.0000
12519SI     SI112519   4.061   8.232   9.375  0.0000  0.0000  0.0000
12520SI     SI112520   6.770   1.451   8.516  0.0000  0.0000  0.0000
12521SI     SI112521   1.514   3.607   8.912  0.0000  0.0000  0.0000
12522SI     SI112522   4.698   0.426   9.569  0.0000  0.0000  0.0000
12523SI     SI112523   8.896   4.167   9.040  0.0000  0.0000  0.0000
12524SI     SI112524   4.116   3.560   0.270  0.0000  0.0000  0.0000
12525SI     SI112525   5.052   7.304   1.048  0.0000  0.0000  0.0000
12526SI     SI112526   6.452   5.137   0.703  0.0000  0.0000  0.0000
12527SI     SI112527   2.100   4.958   1.057  0.0000  0.0000  0.0000
12528SI     SI112528   5.687   7.297   8.951  0.0000  0.0000  0.0000
12529SI     SI112529   1.097   5.743   0.364  0.0000  0.0000  0.0000
12530SI     SI112530   4.658   0.362   0.684  0.0000  0.0000  0.0000
12531SI     SI112531   3.514   2.925   9.598  0.0000  0.0000  0.0000
12532SI     SI112532   7.614   7.572   8.597  0.0000  0.0000  0.0000
12533SI     SI112533   2.702   5.491   8.738  0.0000  0.0000  0.0000
12534SI     SI112534   2.144   8.371   9.214  0.0000  0.0000  0.0000
12535SI     SI112535   8.505   0.746   1.029  0.0000  0.0000  0.0000
12536SI     SI112536   5.437   0.736   1.026  0.0000  0.0000  0.0000
12537SI     SI112537   9.108   5.079   9.152  0.0000  0.0000  0.0000
12538SI     SI112538   9.160   0.310   9.273  0.0000  0.0000  0.0000
12539SI     SI112539   3.410   3.283   0.843  0.0000  0.0000  0.0000
12540SI     SI112540   6.048   9.145   8.931  0.0000  0.0000  0.0000
12541SI     SI112541   0.436   4.318   1.171  0.0000  0.0000  0.0000
12542SI     SI112542   3.667   7.356   9.227  0.0000  0.0000  0.0000
12543SI     SI112543   5.622   8.802   1.061  0.0000  0.0000  0.0000
12544SI     SI112544   1.858   1.713   9.223  0.0000  0.0000  0.0000
12545SI     SI112545   0.232   8.716   0.352  0.0000  0.0000  0.0000
12546SI     SI112546   3.578   2.762   8.525  0.0000  0.0000  0.0000
12547SI     SI112547   0.368   8.503   9.421  0.0000  0.0000  0.0000
12548SI     SI112548   1.549   6.068   8.942  0.0000  0.0000  0.0000
12549SI     SI112549   7.430   8.550   9.120  0.0000  0.0000  0.0000
12550SI     SI112550   9.496   7.901   0.494  0.0000  0.0000  0.0000
12551SI     SI112551   7.129   6.017   9.111  0.0000  0.0000  0.0000
12552SI     SI112552   6.355   3.497   8.935  0.0000  0.0000  0.0000
12553SI     SI112553   5.974   7.577   1.025  0.0000  0.0000  0.0000
12554SI     SI112554   2.970   6.415   0.447  0.0000  0.0000  0.0000
12555SI     SI112555   4.500   0.364   0.205  0.0000  0.0000  0.0000
12556SI     SI112556   0.808   7.343   1.087  0.0000  0.0000  0.0000
12557SI     SI112557   3.024   9.282   9.359  0.0000  0.0000  0.0000
12558SI     SI112558   0.061   6.250   8.334  0.0000  0.0000  0.0000
12559SI     SI112559   3.982   1.952   8.692  0.0000  0.0000  0.0000
12560SI     SI112560   5.710   8.477   0.032  0.0000  0.0000  0.0000
12561SI     SI112561   3.907   8.472   8.939  0.0000  0.0000  0.0000
12562SI     SI112562   4.052   6.132   0.939  0.0000  0.0000  0.0000
12563SI     SI112563   4.211   7.460   1.005  0.0000  0.0000  0.0000
12564SI     SI112564   5.329   2.756   1.188  0.0000  0.0000  0.0000
12565SI     SI112565   1.833   5.928   0.834  0.0000  0.0000  0.0000
12566SI     SI112566   0.466   6.564   9.214  0.0000  0.0000  0.0000
12567SI     SI112567   0.330   8.942   9.193  0.0000  0.0000  0.0000
12568SI     SI112568   6.787   7.890   0.651  0.0000  0.0000  0.0000
12569SI     SI112569   2.701   9.273   0.327  0.0000  0.0000  0.0000
12570SI     SI112570   3.059   8.386   0.825  0.0000  0.0000  0.0000
12571SI     SI112571   5.612   9.551   9.053  0.0000  0.0000  0.0000
12572SI     SI112572   3.360   7.888   9.211  0.0000  0.0000  0.0000
12573SI     SI112573   7.293   9.066   8.792  0.0000  0.0000  0.0000
12574SI     SI112574   9.200   4.455   8.719  0.0000  0.0000  0.0000
12575SI     SI112575   4.571   0.281   8.442  0.0000  0.0000  0.0000
12576SI     SI112576   5.970   2.399   0.213  0.0000  0.0000  0.0000
12577SI     SI112577   7.994   8.496   1.094  0.0000  0.0000  0.0000
12578SI     SI112578   9.579   3.643   0.133  0.0000  0.0000  0.0000
12579SI     SI112579   1.891   0.614   0.010  0.0000  0.0000  0.0000
12580SI     SI112580   0.865   6.690   1.363  0.0000  0.0000  0.0000
12581SI     SI112581   0.364   5.870   8.614  0.0000  0.0000  0.0000
12582SI     SI112582   1.264   4.359   9.248  0.0000  0.0000  0.0000
12583SI     SI112583   9.163   5.791   0.494  0.0000  0.0000  0.0000
12584SI     SI112584   8.870   9.309   0.436  0.0000  0.0000  0.0000
12585SI     SI112585   9.267   4.961   8.928  0.0000  0.0000  0.0000
12586SI     SI112586   4.765   3.517   0.958  0.0000  0.0000  0.0000
12587SI     SI112587   8.672   3.192   0.728  0.0000  0.0000  0.0000
12588SI     SI112588   1.411   9.201   0.524  0.0000  0.0000  0.0000
12589SI     SI112589   4.162   6.262   0.020  0.0000  0.0000  0.0000
12590SI     SI112590   5.674   6.185   8.724  0.0000  0.0000  0.0000
12591SI     SI112591   8.616   5.632   8.529  0.0000  0.0000  0.0000
12592SI     SI112592   0.538   1.115   9.368  0.0000  0.0000  0.0000
12593SI     SI112593   6.577   1.611   8.666  0.0000  0.0000  0.0000
12594SI     SI112594   0.505   9.142   9.368  0.0000  0.0000  0.0000
12595SI     SI112595   7.029   4.257   8.612  0.0000  0.0000  0.0000
12596SI     SI112596   6.722   8.020   9.483  0.0000  0.0000  0.0000
12597SI     SI112597   7.573   9.127   9.558  0.0000  0.0000  0.0000
12598SI     SI112598   7.782   2.898   9.563  0.0000  0.0000  0.0000
12599SI     SI112599   5.738   8.049   1.206  0.0000  0.0000  0.0000
12600SI     SI112600   0.699   3.155   8.644  0.0000  0.0000  0.0000
12601SI     SI112601   3.390   2.573   0.904  0.0000  0.0000  0.0000
12602SI     SI112602   8.345   0.541   0.845  0.0000  0.0000  0.0000
12603SI     SI112603   9.546   3.204   1.203  0.0000  0.0000  0.0000
12604SI     SI112604   4.363   0.436   0.986  0.0000  0.0000  0.0000
12605SI     SI112605   1.470   3.357   0.707  0.0000  0.0000  0.0000
12606SI     SI112606   3.880   2.602   0.098  0.0000  0.0000  0.0000
12607SI     SI112607   5.870   8.084   0.801  0.0000  0.0000  0.0000
12608SI     SI112608   0.427   0.312   8.215  0.0000  0.0000  0.0000
12609SI     SI112609   4.099   8.885   8.848  0.0000  0.0000  0.0000
12610SI     SI112610   4.510   2.419   0.793  0.0000  0.0000  0.0000
12611SI     SI112611   2.124   6.598   0.027  0.0000  0.0000  0.0000
12612SI     SI112612   0.395   3.602   8.667  0.0000  0.0000  0.0000
12613SI     SI112613   7.311   0.925   0.567  0.0000  0.0000  0.0000
12614SI     SI112614   6.120   7.459   1.282  0.0000  0.0000  0.0000
12615SI     SI112615   7.166   7.898   9.296  0.0000  0.0000  0.0000
12616SI     SI112616   2.876   6.431   0.738  0.0000  0.0000  0.0000
12617SI     SI112617   3.623   1.192   0.762  0.0000  0.0000  0.0000
12618SI     SI112618   8.257   5.948   0.422  0.0000  0.0000  0.0000
12619SI     SI112619   2.405   7.164   8.412  0.0000  0.0000  0.0000
12620SI     SI112620   5.691   3.398   0.238  0.0000  0.0000  0.0000
12621SI     SI112621   0.970   4.786   9.145  0.0000  0.0000  0.0000
12622SI     SI112622   3.107   1.498   8.667  0.0000  0.0000  0.0000
12623SI     SI112623   3.866   4.451   1.154  0.0000  0.0000  0.0000
12624SI     SI112624   5.019   6.619   0.543  0.0000  0.0000  0.0000
12625SI     SI112625   6.444   1.935   0.351  0.0000  0.0000  0.0000
12626SI     SI112626   1.174   1.319   8.842  0.0000  0.0000  0.0000
12627SI     SI112627   2.622   2.362   0.719  0.0000  0.0000  0.0000
12628SI     SI112628   9.501   2.363   0.688  0.0000  0.0000  0.0000
12629SI     SI112629   7.422   8.042   8.730  0.0000  0.0000  0.0000
12630SI     SI112630   3.161   6.206   0.303  0.0000  0.0000  0.0000
12631SI     SI112631   3.568   8.271   8.519  0.0000  0.0000  0.0000
12632SI     SI112632   8.683   3.678   8.848  0.0000  0.0000  0.0000
12633SI     SI112633   0.115   1.328   9.360  0.0000  0.0000  0.0000
12634SI     SI112634   1.285   0.138   9.269  0.0000  0.0000  0.0000
12635SI     SI112635   4.760   5.555   0.958  0.0000  0.0000  0.0000
12636SI     SI112636   4.043   4.601   0.940  0.0000  0.0000  0.0000
12637SI     SI112637   9.440   7.041   0.049  0.0000  0.0000  0.0000
12638SI     SI112638   8.934   8.964   0.772  0.0000  0.0000  0.0000
12639SI     SI112639   3.864   4.173   1.306  0.0000  0.0000  0.0000
12640SI     SI112640   1.859   2.825   0.182  0.0000  0.0000  0.0000
12641SI     SI112641   1.863   7.358   8.602  0.0000  0.0000  0.0000
12642SI     SI112642   6.641   2.958   8.555  0.0000  0.0000  0.0000
12643SI     SI112643   5.173   2.923   0.832  0.0000  0.0000  0.0000
12644SI     SI112644   1.434   0.131   8.801  0.0000  0.0000  0.0000
12645SI     SI112645   5.198   8.961   9.324  0.0000  0.0000  0.0000
12646SI     SI112646   8.071   4.829   0.279  0.0000  0.0000  0.0000
12647SI     SI112647   1.100   8.379   9.384  0.0000  0.0000  0.0000
12648SI     SI112648   0.793   1.263   9.470  0.0000  0.0000  0.0000
12649SI     SI112649   6.041   4.191   1.126  0.0000  0.0000  0.0000
12650SI     SI112650   5.421   5.811   0.947  0.0000  0.0000  0.0000
12651SI     SI112651   6.548   3.997   9.489  0.0000  0.0000  0.0000
12652SI     SI112652   8.749   0.370   9.528  0.0000  0.0000  0.0000
12653SI     SI112653   3.084   0.695   9.151  0.0000  0.0000  0.0000
12654SI     SI112654   9.577   6.668   8.964  0.0000  0.0000  0.0000
12655SI     SI112655   8.059   5.135   0.251  0.0000  0.0000  0.0000
12656SI     SI112656   6.766   6.298   8.816  0.0000  0.0000  0.0000
12657SI     SI112657   6.170   6.256   0.737  0.0000  0.0000  0.0000
12658SI     SI112658   5.196   2.822   0.558  0.0000  0.0000  0.0000
12659SI     SI112659   7.391   1.168   9.557  0.0000  0.0000  0.0000
12660SI     SI112660   4.117   9.172   8.769  0.0000  0.0000  0.0000
12661SI     SI112661   0.428   5.314   9.476  0.0000  0.0000  0.0000
12662SI     SI112662   5.837   1.458   1.112  0.0000  0.0000  0.0000
12663SI     SI112663   6.697   0.062   1.123  0.0000  0.0000  0.0000
12664SI     SI112664   4.233   2.205   9.058  0.0000  0.0000  0.0000
12665SI     SI112665   6.543   5.163   0.991  0.0000  0.0000  0.0000
12666SI     SI112666   1.300   6.146   0.044  0.0000  0.0000  0.0000
12667SI     SI112667   7.930   7.737   8.253  0.0000  0.0000  0.0000
12668SI     SI112668   5.221   9.111   0.767  0.0000  0.0000  0.0000
12669SI     SI112669   8.704   9.044   9.392  0.0000  0.0000  0.0000
12670SI     SI112670   9.124   1.557   1.271  0.0000  0.0000  0.0000
12671SI     SI112671   8.768   9.465   9.371  0.0000  0.0000  0.0000
12672SI     SI112672   1.598   4.005   0.559  0.0000  0.0000  0.0000
12673SI     SI112673   5.863   4.260   8.319  0.0000  0.0000  0.0000
12674SI     SI112674   8.919   2.776   8.334  0.0000  0.0000  0.0000
12675SI     SI112675   6.080   4.203   0.067  0.0000  0.0000  0.0000
12676SI     SI112676   0.443   3.828   0.440  0.0000  0.0000  0.0000
12677SI     SI112677   6.052   8.186   8.912  0.0000  0.0000  0.0000
12678SI     SI112678   5.952   3.194   8.900  0.0000  0.0000  0.0000
12679SI     SI112679   3.385   6.967   0.071  0.0000  0.0000  0.0000
12680SI     SI112680   7.873   3.327   8.798  0.0000  0.0000  0.0000
12681SI     SI112681   5.745   8.513   0.538  0.0000  0.0000  0.0000
12682SI     SI112682   8.457   1.982   0.139  0.0000  0.0000  0.0000
12683SI     SI112683   8.613   2.723   9.461  0.0000  0.0000  0.0000
12684SI     SI112684   3.924   2.424   8.522  0.0000  0.0000  0.0000
12685SI     SI112685   2.770   5.635   0.669  0.0000  0.0000  0.0000
12686SI     SI112686   1.553   3.265   0.351  0.0000  0.0000  0.0000
12687SI     SI112687   2.440   2.884   8.805  0.0000  0.0000  0.0000
12688SI     SI112688   6.655   5.691   0.036  0.0000  0.0000  0.0000
12689SI     SI112689   6.253   0.590   9.500  0.0000  0.0000  0.0000
12690SI     SI112690   0.026   1.763   8.927  0.0000  0.0000  0.0000
12691SI     SI112691   5.292   4.635   9.258  0.0000  0.0000  0.0000
12692SI     SI112692   5.103   2.541   8.707  0.0000  0.0000  0.0000
12693SI     SI112693   7.956   4.810   0.576  0.0000  0.0000  0.0000
12694SI     SI112694   8.285   4.718   1.422  0.0000  0.0000  0.0000
12695SI     SI112695   3.142   5.877   0.896  0.0000  0.0000  0.0000
12696SI     SI112696   0.972   0.370   9.046  0.0000  0.0000  0.0000
12697SI     SI112697   1.114   1.861   8.255  0.0000  0.0000  0.0000
12698SI     SI112698   2.810   3.409   8.992  0.0000  0.0000  0.0000
12699SI     SI112699   2.494   6.364   8.403  0.0000  0.0000  0.0000
12700SI     SI112700   2.830   8.998   9.042  0.0000  0.0000  0.0000
12701SI     SI112701   0.166   0.661   9.366  0.0000  0.0000  0.0000
12702SI     SI112702   5.994   3.618   9.231  0.0000  0.0000  0.0000
12703SI     SI112703   7.719   3.393   9.601  0.0000  0.0000  0.0000
12704SI     SI112704   5.792   2.040   9.551  0.0000  0.0000  0.0000
12705SI     SI112705   1.321   2.863   9.043  0.0000  0.0000  0.0000
12706SI     SI112706   1.610   5.722   0.835  0.0000  0.0000  0.0000
12707SI     SI112707   7.762   6.073   9.191  0.0000  0.0000  0.0000
12708SI     SI112708   1.174   8.556   0.774  0.0000  0.0000  0.0000
12709SI     SI112709   5.310   0.640   9.251  0.0000  0.0000  0.0000
12710SI     SI112710   0.974   6.507   9.232  0.0000  0.0000  0.0000
12711SI     SI112711   6.454   3.778   9.283  0.0000  0.0000  0.0000
12712SI     SI112712   3.808   2.292   0.947  0.0000  0.0000  0.0000
12713SI     SI112713   5.632   6.460   1.160  0.0000  0.0000  0.0000
12714SI     SI112714   4.548   4.174   0.595  0.0000  0.0000  0.0000
12715SI     SI112715   2.178   2.166   1.107  0.0000  0.0000  0.0000
12716SI     SI112716   6.491   0.119   0.903  0.0000  0.0000  0.0000
12717SI     SI112717   5.035   1.702   1.076  0.0000  0.0000  0.0000
12718SI     SI112718   8.496   1.929   8.467  0.0000  0.0000  0.0000
12719SI     SI112719   8.775   8.291   9.334  0.0000  0.0000  0.0000
12720SI     SI112720   7.875   8.783   9.101  0.0000  0.0000  0.0000
12721SI     SI112721   8.123   0.395   9.148  0.0000  0.0000  0.0000
12722SI     SI112722   6.026   8.062   0.540  0.0000  0.0000  0.0000
12723SI     SI112723   1.647   3.463   9.464  0.0000  0.0000  0.0000
12724SI     SI112724   3.673   7.595   9.441  0.0000  0.0000  0.0000
12725SI     SI112725   8.210   8.881   0.783  0.0000  0.0000  0.0000
12726SI     SI112726   7.391   5.243   8.467  0.0000  0.0000  0.0000
12727SI     SI112727   1.910   3.715   9.220  0.0000  0.0000  0.0000
12728SI     SI112728   3.643   9.423   0.057  0.0000  0.0000  0.0000
12729SI     SI112729   7.955   6.224   0.091  0.0000  0.0000  0.0000
12730SI     SI112730   7.600   0.012   0.295  0.0000  0.0000  0.0000
12731SI     SI112731   5.257   1.446   9.036  0.0000  0.0000  0.0000
12732SI     SI112732   3.493   4.471   8.396  0.0000  0.0000  0.0000
12733SI     SI112733   8.254   1.148   9.234  0.0000  0.0000  0.0000
12734SI     SI112734   6.155   5.113   8.998  0.0000  0.0000  0.0000
12735SI     SI112735   2.114   0.248   0.747  0.0000  0.0000  0.0000
12736SI     SI112736   9.281   2.207   9.357  0.0000  0.0000  0.0000
12737SI     SI112737   9.570   7.608   9.208  0.0000  0.0000  0.0000
12738SI     SI112738   5.026   4.034   8.808  0.0000  0.0000  0.0000
12739SI     SI112739   7.037   0.289   8.407  0.0000  0.0000  0.0000
12740SI     SI112740   7.312   9.026   9.425  0.0000  0.0000  0.0000
12741SI     SI112741   1.395   6.991   0.203  0.0000  0.0000  0.0000
12742SI     SI112742   5.026   4.600   9.433  0.0000  0.0000  0.0000
12743SI     SI112743   4.879   4.507   0.999  0.0000  0.0000  0.0000
12744SI     SI112744   4.615   5.571   0.694  0.0000  0.0000  0.0000
12745SI     SI112745   7.216   0.369   0.038  0.0000  0.0000  0.0000
12746SI     SI112746   7.844   7.730   0.557  0.0000  0.0000  0.0000
12747SI     SI112747   3.156   0.686   8.514  0.0000  0.0000  0.0000
12748SI     SI112748   1.243   9.414   0.661  0.0000  0.0000  0.0000
12749SI     SI112749   9.194   7.712   9.023  0.0000  0.0000  0.0000
12750SI     SI112750   3.655   8.785   0.715  0.0000  0.0000  0.0000
12751SI     SI112751   4.716   8.587   8.586  0.0000  0.0000  0.0000
12752SI     SI112752   8.912   6.045   0.058  0.0000  0.0000  0.0000
12753SI     SI112753   0.412   6.076   0.888  0.0000  0.0000  0.0000
12754SI     SI112754   0.450   1.709   0.980  0.0000  0.0000  0.0000
12755SI     SI112755   2.407   0.180   8.426  0.0000  0.0000  0.0000
12756SI     SI112756   2.629   1.149   0.098  0.0000  0.0000  0.0000
12757SI     SI112757   5.310   5.227   0.183  0.0000  0.0000  0.0000
12758SI     SI112758   2.717   2.210   1.148  0.0000  0.0000  0.0000
12759SI     SI112759   8.540   5.104   0.338  0.0000  0.0000  0.0000
12760SI     SI112760   6.885   9.138   9.111  0.0000  0.0000  0.0000
12761SI     SI112761   5.797   4.318   1.014  0.0000  0.0000  0.0000
12762SI     SI112762   8.257   4.426   8.639  0.0000  0.0000  0.0000
12763SI     SI112763   4.033   5.039   0.349  0.0000  0.0000  0.0000
12764SI     SI112764   3.801   4.846   0.248  0.0000  0.0000  0.0000
12765SI     SI112765   7.024   7.125   8.620  0.0000  0.0000  0.0000
12766SI     SI112766   3.492   3.662   8.402  0.0000  0.0000  0.0000
12767SI     SI112767   5.850   4.788   0.871  0.0000  0.0000  0.0000
12768SI     SI112768   5.523   3.155   0.938  0.0000  0.0000  0.0000
12769SI     SI112769   9.312   6.351   0.155  0.0000  0.0000  0.0000
12770SI     SI112770   5.916   4.559   8.716  0.0000  0.0000  0.0000
12771SI     SI112771   2.523   6.699   8.862  0.0000  0.0000  0.0000
12772SI     SI112772   6.137   2.140   0.593  0.0000  0.0000  0.0000
12773SI     SI112773   8.704   7.305   0.120  0.0000  0.0000  0.0000
12774SI     SI112774   9.119   2.643   9.492  0.0000  0.0000  0.0000
12775SI     SI112775   6.948   4.784   9.421  0.0000  0.0000  0.0000
12776SI     SI112776   7.387   5.646   8.706  0.0000  0.0000  0.0000
12777SI     SI112777   2.461   1.974   8.595  0.0000  0.0000  0.0000
12778SI     SI112778   2.201   2.983   1.361  0.0000  0.0000  0.0000
12779SI     SI112779   7.502   0.449   1.458  0.0000  0.0000  0.0000
12780SI     SI112780   0.088   4.601   1.063  0.0000  0.0000  0.0000
12781SI     SI112781   3.231   0.935   0.215  0.0000  0.0000  0.0000
12782SI     SI112782   1.423   2.690   8.445  0.0000  0.0000  0.0000
12783SI     SI112783   5.637   1.607   0.149  0.0000  0.0000  0.0000
12784SI     SI112784   5.219   4.015   8.322  0.0000  0.0000  0.0000
12785SI     SI112785   7.824   5.959   0.216  0.0000  0.0000  0.0000
12786SI     SI112786   7.929   6.123   0.985  0.0000  0.0000  0.0000
12787SI     SI112787   1.752   0.543   8.708  0.0000  0.0000  0.0000
12788SI     SI112788   0.635   4.063   0.514  0.0000  0.0000  0.0000
12789SI     SI112789   1.078   3.056   0.655  0.0000  0.0000  0.0000
12790SI     SI112790   2.958   6.579   9.423  0.0000  0.0000  0.0000
12791SI     SI112791   4.763   9.438   0.607  0.0000  0.0000  0.0000
12792SI     SI112792   1.912   2.198   9.188  0.0000  0.0000  0.0000
12793SI     SI112793   6.414   0.320   8.641  0.0000  0.0000  0.0000
12794SI     SI112794   1.855   3.142   8.444  0.0000  0.0000  0.0000
12795SI     SI112795   7.485   6.043   8.658  0.0000  0.0000  0.0000
12796SI     SI112796   4.250   9.491   0.356  0.0000  0.0000  0.0000
12797SI     SI112797   1.416   5.857   8.564  0.0000  0.0000  0.0000
12798SI     SI112798   1.303   1.463   0.646  0.0000  0.0000  0.0000
12799SI     SI112799   8.614   8.547   8.262  0.0000  0.0000  0.0000
12800SI     SI112800   1.675   1.905   1.052  0.0000  0.0000  0.0000
12801SI     SI112801   2.946   7.538   0.217  0.0000  0.0000  0.0000
12802SI     SI112802   7.608   2.101   9.556  0.0000  0.0000  0.0000
12803SI     SI112803   5.527   1.668   8.700  0.0000  0.0000  0.0000
12804SI     SI112804   7.203   0.073   1.204  0.0000  0.0000  0.0000
12805SI     SI112805   9.225   7.450   0.363  0.0000  0.0000  0.0000
12806SI     SI112806   0.186   5.632   8.540  0.0000  0.0000  0.0000
12807SI     SI112807   7.063   1.162   8.688  0.0000  0.0000  0.0000
12808SI     SI112808   7.273   1.646   8.650  0.0000  0.0000  0.0000
12809SI     SI112809   0.080   6.489   1.243  0.0000  0.0000  0.0000
12810SI     SI112810   3.210   4.185   8.915  0.0000  0.0000  0.0000
12811SI     SI112811   1.575   0.535   9.189  0.0000  0.0000  0.0000
12812SI     SI112812   6.193   9.143   0.576  0.0000  0.0000  0.0000
12813SI     SI112813   0.971   6.443   0.420  0.0000  0.0000  0.0000
12814SI     SI112814   5.321   4.030   9.209  0.0000  0.0000  0.0000
12815SI     SI112815   7.075   6.942   0.415  0.0000  0.0000  0.0000
12816SI     SI112816   5.838   6.631   0.205  0.0000  0.0000  0.0000
12817SI     SI112817   5.930   7.161   1.034  0.0000  0.0000  0.0000
12818SI     SI112818   0.237   4.589   9.274  0.0000  0.0000  0.0000
12819SI     SI112819   0.514   5.317   8.983  0.0000  0.0000  0.0000
12820SI     SI112820   4.442   2.954   0.968  0.0000  0.0000  0.0000
12821SI     SI112821   6.229   7.823   9.193  0.0000  0.0000  0.0000
12822SI     SI112822   7.983   0.087   8.762  0.0000  0.0000  0.0000
12823SI     SI112823   4.023   3.669   0.738  0.0000  0.0000  0.0000
12824SI     SI112824   3.109   4.619   0.832  0.0000  0.0000  0.0000
12825SI     SI112825   2.787   0.371   8.562  0.0000  0.0000  0.0000
12826SI     SI112826   4.348   5.101   8.957  0.0000  0.0000  0.0000
12827SI     SI112827   6.411   2.005   0.655  0.0000  0.0000  0.0000
12828SI     SI112828   4.012   6.838   0.659  0.0000  0.0000  0.0000
12829SI     SI112829   1.827   4.808   1.112  0.0000  0.0000  0.0000
12830SI     SI112830   5.562   6.718   9.322  0.0000  0.0000  0.0000
12831SI     SI112831   6.504   7.662   9.173  0.0000  0.0000  0.0000
12832SI     SI112832   9.422   5.924   9.434  0.0000  0.0000  0.0000
12833SI     SI112833   7.058   5.554   0.110  0.0000  0.0000  0.0000
12834SI     SI112834   2.558   8.348   8.580  0.0000  0.0000  0.0000
12835SI     SI112835   6.102   9.574   8.405  0.0000  0.0000  0.0000
12836SI     SI112836   2.468   6.623   8.565  0.0000  0.0000  0.0000
12837SI     SI112837   7.352   1.758   0.605  0.0000  0.0000  0.0000
12838SI     SI112838   4.505   5.330   8.505  0.0000  0.0000  0.0000
12839SI     SI112839   6.086   8.713   9.398  0.0000  0.0000  0.0000
12840SI     SI112840   7.616   6.566   0.880  0.0000  0.0000  0.0000
12841SI     SI112841   1.376   7.254   0.633  0.0000  0.0000  0.0000
12842SI     SI112842   9.314   8.575   0.500  0.0000  0.0000  0.0000
12843SI     SI112843   1.017   7.116   0.789  0.0000  0.0000  0.0000
12844SI     SI112844   1.307   2.623   8.875  0.0000  0.0000  0.0000
12845SI     SI112845   7.296   9.099   0.827  0.0000  0.0000  0.0000
12846SI     SI112846   4.231   5.621   8.760  0.0000  0.0000  0.0000
12847SI     SI112847   3.299   0.822   0.488  0.0000  0.0000  0.0000
12848SI     SI112848   6.447   7.438   0.754  0.0000  0.0000  0.0000
12849SI     SI112849   1.416   5.065   0.698  0.0000  0.0000  0.0000
12850SI     SI112850   3.526   5.467   8.748  0.0000  0.0000  0.0000
12851SI     SI112851   1.350   0.695   9.068  0.0000  0.0000  0.0000
12852SI     SI112852   8.859   3.423   8.770  0.0000  0.0000  0.0000
12853SI     SI112853   9.541   7.048   8.565  0.0000  0.0000  0.0000
12854SI     SI112854   4.177   4.879   0.579  0.0000  0.0000  0.0000
12855SI     SI112855   5.007   7.349   8.404  0.0000  0.0000  0.0000
12856SI     SI112856   1.289   7.177   0.910  0.0000  0.0000  0.0000
12857SI     SI112857   0.925   6.047   9.340  0.0000  0.0000  0.0000
12858SI     SI112858   1.110   6.242   8.632  0.0000  0.0000  0.0000
12859SI     SI112859   3.433   6.567   0.436  0.0000  0.0000  0.0000
12860SI     SI112860   1.869   8.082   9.462  0.0000  0.0000  0.0000
12861SI     SI112861   5.128   8.602   8.767  0.0000  0.0000  0.0000
12862SI     SI112862   7.009   8.444   1.041  0.0000  0.0000  0.0000
12863SI     SI112863   9.105   5.126   8.511  0.0000  0.0000  0.0000
12864SI     SI112864   4.264   2.257   8.263  0.0000  0.0000  0.0000
12865SI     SI112865   9.321   1.425   0.551  0.0000  0.0000  0.0000
12866SI     SI112866   2.943   4.677   1.096  0.0000  0.0000  0.0000
12867SI     SI112867   0.574   8.195   8.756  0.0000  0.0000  0.0000
12868SI     SI112868   2.007   4.975   0.244  0.0000  0.0000  0.0000
12869SI     SI112869   2.829   1.908   0.495  0.0000  0.0000  0.0000
12870SI     SI112870   2.284   7.738   1.240  0.0000  0.0000  0.0000
12871SI     SI112871   8.806   5.697   9.218  0.0000  0.0000  0.0000
12872SI     SI112872   1.073   0.638   9.180  0.0000  0.0000  0.0000
12873SI     SI112873   6.615   6.396   9.064  0.0000  0.0000  0.0000
12874SI     SI112874   4.432   0.697   1.304  0.0000  0.0000  0.0000
12875SI     SI112875   1.276   8.938   8.789  0.0000  0.0000  0.0000
12876SI     SI112876   0.204   8.720   8.766  0.0000  0.0000  0.0000
12877SI     SI112877   6.791   3.851   0.414  0.0000  0.0000  0.0000
12878SI     SI112878   4.225   8.414   0.203  0.0000  0.0000  0.0000
12879SI     SI112879   8.321   4.543   0.520  0.0000  0.0000  0.0000
12880SI     SI112880   8.564   4.788   8.419  0.0000  0.0000  0.0000
12881SI     SI112881   4.839   1.147   8.917  0.0000  0.0000  0.0000
12882SI     SI112882   0.546   6.428   0.581  0.0000  0.0000  0.0000
12883SI     SI112883   0.259   9.321   0.232  0.0000  0.0000  0.0000
12884SI     SI112884   0.167   6.617   9.209  0.0000  0.0000  0.0000
12885SI     SI112885   2.094   0.466   8.327  0.0000  0.0000  0.0000
12886SI     SI112886   1.572   0.125   1.136  0.0000  0.0000  0.0000
12887SI     SI112887   7.118   1.728   0.403  0.0000  0.0000  0.0000
12888SI     SI112888   4.865   0.879   0.200  0.0000  0.0000  0.0000
12889SI     SI112889   5.855   4.273   0.534  0.0000  0.0000  0.0000
12890SI     SI112890   2.454   0.715   1.146  0.0000  0.0000  0.0000
12891SI     SI112891   2.942   2.370   0.403  0.0000  0.0000  0.0000
12892SI     SI112892   2.742   6.558   9.008  0.0000  0.0000  0.0000
12893SI     SI112893   8.917   6.398   9.007  0.0000  0.0000  0.0000
12894SI     SI112894   7.095   8.435   0.738  0.0000  0.0000  0.0000
12895SI     SI112895   5.218   4.308   0.350  0.0000  0.0000  0.0000
12896SI     SI112896   5.860   1.504   0.797  0.0000  0.0000  0.0000
12897SI     SI112897   7.514   4.647   0.612  0.0000  0.0000  0.0000
12898SI     SI112898   2.175   8.436   0.596  0.0000  0.0000  0.0000
12899SI     SI112899   5.864   0.575   8.415  0.0000  0.0000  0.0000
12900SI     SI112900   8.492   8.282   8.862  0.0000  0.0000  0.0000
12901SI     SI112901   3.722   6.930   9.239  0.0000  0.0000  0.0000
12902SI     SI112902   0.630   9.314   8.786  0.0000  0.0000  0.0000
12903SI     SI112903   3.661   0.568   9.575  0.0000  0.0000  0.0000
12904SI     SI112904   4.649   2.547   8.550  0.0000  0.0000  0.0000
12905SI     SI112905   7.051   7.427   9.131  0.0000  0.0000  0.0000
12906SI     SI112906   8.342   4.133   8.297  0.0000  0.0000  0.0000
12907SI     SI112907   4.570   7.429   8.598  0.0000  0.0000  0.0000
12908SI     SI112908   4.295   0.523   9.194  0.0000  0.0000  0.0000
12909SI     SI112909   4.556   4.398   0.125  0.0000  0.0000  0.0000
12910SI     SI112910   0.479   8.177   8.371  0.0000  0.0000  0.0000
12911SI     SI112911   9.103   0.708   8.967  0.0000  0.0000  0.0000
12912SI     SI112912   1.586   0.363   1.322  0.0000  0.0000  0.0000
12913SI     SI112913   1.352   5.843   0.947  0.0000  0.0000  0.0000
12914SI     SI112914   2.466   5.377   8.886  0.0000  0.0000  0.0000
12915SI     SI112915   2.535   4.281   9.352  0.0000  0.0000  0.0000
12916SI     SI112916   4.416   1.069   8.695  0.0000  0.0000  0.0000
12917SI     SI112917   0.689   4.684   0.546  0.0000  0.0000  0.0000
12918SI     SI112918   3.825   0.445   9.097  0.0000  0.0000  0.0000
12919SI     SI112919   0.713   4.055   9.050  0.0000  0.0000  0.0000
12920SI     SI112920   8.736   5.971   8.803  0.0000  0.0000  0.0000
12921SI     SI112921   2.060   9.391   9.117  0.0000  0.0000  0.0000
12922SI     SI112922   4.598   8.326   0.934  0.0000  0.0000  0.0000
12923SI     SI112923   7.289   0.286   9.372  0.0000  0.0000  0.0000
12924SI     SI112924   4.467   0.356   8.991  0.0000  0.0000  0.0000
12925SI     SI112925   7.995   7.013   8.852  0.0000  0.0000  0.0000
12926SI     SI112926   7.936   7.115   9.383  0.0000  0.0000  0.0000
12927SI     SI112927   8.595   5.211   9.076  0.0000  0.0000  0.0000
12928SI     SI112928   6.639   1.854   1.044  0.0000  0.0000  0.0000
12929SI     SI112929   3.780   2.692   9.413  0.0000  0.0000  0.0000
12930SI     SI112930   0.211   2.431   9.240  0.0000  0.0000  0.0000
12931SI     SI112931   7.362   0.872   8.624  0.0000  0.0000  0.0000
12932SI     SI112932   5.180   2.986   0.315  0.0000  0.0000  0.0000
12933SI     SI112933   7.759   7.231   0.787  0.0000  0.0000  0.0000
12934SI     SI112934   1.733   9.158   8.800  0.0000  0.0000  0.0000
12935SI     SI112935   3.887   4.336   9.343  0.0000  0.0000  0.0000
12936SI     SI112936   9.238   9.254   9.133  0.0000  0.0000  0.0000
12937SI     SI112937   2.162   1.164   9.224  0.0000  0.0000  0.0000
12938SI     SI112938   1.528   6.155   9.425  0.0000  0.0000  0.0000
12939SI     SI112939   0.261   6.522   8.648  0.0000  0.0000  0.0000
12940SI     SI112940   2.181   7.935   0.544  0.0000  0.0000  0.0000
12941SI     SI112941   4.166   0.140   8.517  0.0000  0.0000  0.0000
12942SI     SI112942   0.055   2.727   9.538  0.0000  0.0000  0.0000
12943SI     SI112943   1.993   1.065   0.058  0.0000  0.0000  0.0000
12944SI     SI112944   1.854   0.133   0.260  0.0000  0.0000  0.0000
12945SI     SI112945   2.116   5.439   9.597  0.0000  0.0000  0.0000
12946SI     SI112946   7.481   1.272   0.714  0.0000  0.0000  0.0000
12947SI     SI112947   2.879   6.763   9.193  0.0000  0.0000  0.0000
12948SI     SI112948   1.541   5.143   0.429  0.0000  0.0000  0.0000
12949SI     SI112949   4.278   9.163   0.916  0.0000  0.0000  0.0000
12950SI     SI112950   1.305   2.309   0.131  0.0000  0.0000  0.0000
12951SI     SI112951   3.114   4.902   0.713  0.0000  0.0000  0.0000
12952SI     SI112952   6.404   0.608   8.725  0.0000  0.0000  0.0000
12953SI     SI112953   5.778   0.518   0.768  0.0000  0.0000  0.0000
12954SI     SI112954   1.698   5.591   1.108  0.0000  0.0000  0.0000
12955SI     SI112955   3.691   3.676   8.986  0.0000  0.0000  0.0000
12956SI     SI112956   2.249   6.319   0.377  0.0000  0.0000  0.0000
12957SI     SI112957   1.890   8.762   0.490  0.0000  0.0000  0.0000
12958SI     SI112958   0.910   2.297   8.874  0.0000  0.0000  0.0000
12959SI     SI112959   9.421   6.314   9.145  0.0000  0.0000  0.0000
12960SI     SI112960   3.149   7.022   0.794  0.0000  0.0000  0.0000
12961SI     SI112961   5.424   1.938   8.377  0.0000  0.0000  0.0000
12962SI     SI112962   2.247   4.486   0.552  0.0000  0.0000  0.0000
12963SI     SI112963   4.827   2.473   0.536  0.0000  0.0000  0.0000
12964SI     SI112964   5.566   1.613   9.445  0.0000  0.0000  0.0000
12965SI     SI112965   4.432   5.813   8.642  0.0000  0.0000  0.0000
12966SI     SI112966   8.505   3.180   9.552  0.0000  0.0000  0.0000
12967SI     SI112967   8.049   8.095   0.169  0.0000  0.0000  0.0000
12968SI     SI112968   9.150   3.446   9.531  0.0000  0.0000  0.0000
12969SI     SI112969   6.569   8.037   8.489  0.0000  0.0000  0.0000
12970SI     SI112970   5.107   0.660   8.402  0.0000  0.0000  0.0000
12971SI     SI112971   6.845   7.429   0.899  0.0000  0.0000  0.0000
12972SI     SI112972   8.141   3.151   9.410  0.0000  0.0000  0.0000
12973SI     SI112973   2.963   9.497   9.134  0.0000  0.0000  0.0000
12974SI     SI112974   2.432   7.380   8.624  0.0000  0.0000  0.0000
12975SI     SI112975   8.070   4.841   8.368  0.0000  0.0000  0.0000
12976SI     SI112976   8.146   0.586   0.153  0.0000  0.0000  0.0000
12977SI     SI112977   0.072   2.543   0.179  0.0000  0.0000  0.0000
12978SI     SI112978   3.587   8.146   0.247  0.0000  0.0000  0.0000
12979SI     SI112979   6.270   8.270   8.706  0.0000  0.0000  0.0000
12980SI     SI112980   4.455   3.346   0.697  0.0000  0.0000  0.0000
12981SI     SI112981   3.814   5.961   0.946  0.0000  0.0000  0.0000
12982SI     SI112982   6.952   2.711   0.618  0.0000  0.0000  0.0000
12983SI     SI112983   0.336   4.868   8.784  0.0000  0.0000  0.0000
12984SI     SI112984   8.499   0.835   0.468  0.0000  0.0000  0.0000
12985SI     SI112985   7.343   0.930   9.081  0.0000  0.0000  0.0000
12986SI     SI112986   4.706   3.021   0.378  0.0000  0.0000  0.0000
12987SI     SI112987   9.475   8.565   8.551  0.0000  0.0000  0.0000
12988SI     SI112988   3.946   4.179   0.618  0.0000  0.0000  0.0000
12989SI     SI112989   7.113   8.116   8.679  0.0000  0.0000  0.0000
12990SI     SI112990   5.319   7.329   0.193  0.0000  0.0000  0.0000
12991SI     SI112991   3.970   0.265   8.907  0.0000  0.0000  0.0000
12992SI     SI112992   1.384   4.187   0.691  0.0000  0.0000  0.0000
12993SI     SI112993   6.941   1.096   9.218  0.0000  0.0000  0.0000
12994SI     SI112994   8.124   0.459   0.440  0.0000  0.0000  0.0000
12995SI     SI112995   3.891   7.581   1.258  0.0000  0.0000  0.0000
12996SI     SI112996   5.412   5.807   9.349  0.0000  0.0000  0.0000
12997SI     SI112997   5.557   0.454   0.964  0.0000  0.0000  0.0000
12998SI     SI112998   6.313   3.810   8.357  0.0000  0.0000  0.0000
12999SI     SI112999   7.573   0.691   8.486  0.0000  0.0000  0.0000
13000SI     SI113000   6.431   9.350   0.279  0.0000  0.0000  0.0000
13001SI     SI113001   7.064   5.741   0.344  0.0000  0.0000  0.0000
13002SI     SI113002   8.904   3.549   1.077  0.0000  0.0000  0.0000
13003SI     SI113003   7.351   0.189   0.260  0.0000  0.0000  0.0000
13004SI     SI113004   5.881   2.910   8.806  0.0000  0.0000  0.0000
13005SI     SI113005   1.516   5.048   8.661  0.0000  0.0000  0.0000
13006SI     SI113006   0.924   6.409   0.118  0.0000  0.0000  0.0000
13007SI     SI113007   3.796   2.900   0.887  0.0000  0.0000  0.0000
13008SI     SI113008   6.081   6.077   0.317  0.0000  0.0000  0.0000
13009SI     SI113009   2.065   7.632   0.006  0.0000  0.0000  0.0000
13010SI     SI113010   5.730   7.814   9.053  0.0000  0.0000  0.0000
13011SI     SI113011   2.301   1.566   0.679  0.0000  0.0000  0.0000
13012SI     SI113012   1.984   2.959   8.627  0.0000  0.0000  0.0000
13013SI     SI113013   1.814   3.878   0.129  0.0000  0.0000  0.0000
13014SI     SI113014   5.150   5.503   9.117  0.0000  0.0000  0.0000
13015SI     SI113015   6.594   5.624   0.914  0.0000  0.0000  0.0000
13016SI     SI113016   3.319   5.730   0.200  0.0000  0.0000  0.0000
13017SI     SI113017   9.174   3.830   8.842  0.0000  0.0000  0.0000
13018SI     SI113018   0.316   0.065   8.932  0.0000  0.0000  0.0000
13019SI     SI113019   2.303   5.040   9.198  0.0000  0.0000  0.0000
13020SI     SI113020   2.102   3.993   8.774  0.0000  0.0000  0.0000
13021SI     SI113021   5.642   8.930   8.871  0.0000  0.0000  0.0000
13022SI     SI113022   3.916   4.602   1.434  0.0000  0.0000  0.0000
13023SI     SI113023   6.541   0.976   9.465  0.0000  0.0000  0.0000
13024SI     SI113024   3.155   5.387   9.534  0.0000  0.0000  0.0000
13025SI     SI113025   0.875   7.493   0.614  0.0000  0.0000  0.0000
13026SI     SI113026   1.935   6.156   1.033  0.0000  0.0000  0.0000
13027SI     SI113027   9.434   2.108   0.280  0.0000  0.0000  0.0000
13028SI     SI113028   1.583   5.290   0.813  0.0000  0.0000  0.0000
13029SI     SI113029   8.347   7.087   9.272  0.0000  0.0000  0.0000
13030SI     SI113030   9.181   4.280   8.980  0.0000  0.0000  0.0000
13031SI     SI113031   1.619   8.590   0.995  0.0000  0.0000  0.0000
13032SI     SI113032   4.983   2.344   0.305  0.0000  0.0000  0.0000
13033SI     SI113033   0.398   8.448   0.763  0.0000  0.0000  0.0000
13034SI     SI113034   1.464   7.770   0.468  0.0000  0.0000  0.0000
13035SI     SI113035   4.768   9.592   0.345  0.0000  0.0000  0.0000
13036SI     SI113036   7.849   0.367   9.542  0.0000  0.0000  0.0000
13037SI     SI113037   3.357   5.786   1.085  0.0000  0.0000  0.0000
13038SI     SI113038   2.825   7.075   1.257  0.0000  0.0000  0.0000
13039SI     SI113039   4.031   1.585   0.258  0.0000  0.0000  0.0000
13040SI     SI113040   8.121   3.756   1.060  0.0000  0.0000  0.0000
13041SI     SI113041   3.447   4.516   8.686  0.0000  0.0000  0.0000
13042SI     SI113042   3.683   5.521   0.849  0.0000  0.0000  0.0000
13043SI     SI113043   1.853   8.968   0.935  0.0000  0.0000  0.0000
13044SI     SI113044   3.680   4.301   0.495  0.0000  0.0000  0.0000
13045SI     SI113045   6.627   3.803   9.023  0.0000  0.0000  0.0000
13046SI     SI113046   7.009   7.740   0.538  0.0000  0.0000  0.0000
13047SI     SI113047   1.249   5.589   8.974  0.0000  0.0000  0.0000
13048SI     SI113048   4.835   6.668   0.292  0.0000  0.0000  0.0000
13049SI     SI113049   5.695   0.824   9.039  0.0000  0.0000  0.0000
13050SI     SI113050   4.961   3.311   0.004  0.0000  0.0000  0.0000
13051SI     SI113051   9.352   4.069   0.022  0.0000  0.0000  0.0000
13052SI     SI113052   8.524   9.349   8.458  0.0000  0.0000  0.0000
13053SI     SI113053   5.261   4.564   0.701  0.0000  0.0000  0.0000
13054SI     SI113054   6.810   8.901   9.308  0.0000  0.0000  0.0000
13055SI     SI113055   2.650   2.527   9.548  0.0000  0.0000  0.0000
13056SI     SI113056   4.288   0.860   0.887  0.0000  0.0000  0.0000
13057SI     SI113057   2.746   2.642   0.689  0.0000  0.0000  0.0000
13058SI     SI113058   3.451   5.631   9.291  0.0000  0.0000  0.0000
13059SI     SI113059   6.954   9.362   8.755  0.0000  0.0000  0.0000
13060SI     SI113060   4.839   1.338   0.023  0.0000  0.0000  0.0000
13061SI     SI113061   4.718   5.899   0.225  0.0000  0.0000  0.0000
13062SI     SI113062   1.402   9.566   9.046  0.0000  0.0000  0.0000
13063SI     SI113063   6.806   6.119   0.831  0.0000  0.0000  0.0000
13064SI     SI113064   6.648   8.710   8.535  0.0000  0.0000  0.0000
13065SI     SI113065   0.918   7.362   9.390  0.0000  0.0000  0.0000
13066SI     SI113066   2.423   9.257   0.211  0.0000  0.0000  0.0000
13067SI     SI113067   3.897   8.305   0.566  0.0000  0.0000  0.0000
13068SI     SI113068   7.470   7.845   9.244  0.0000  0.0000  0.0000
13069SI     SI113069   7.161   5.211   9.534  0.0000  0.0000  0.0000
13070SI     SI113070   4.510   7.997   8.578  0.0000  0.0000  0.0000
13071SI     SI113071   6.195   2.780   8.964  0.0000  0.0000  0.0000
13072SI     SI113072   6.992   3.296   0.992  0.0000  0.0000  0.0000
13073SI     SI113073   2.809   6.450   1.255  0.0000  0.0000  0.0000
13074SI     SI113074   0.507   4.925   0.654  0.0000  0.0000  0.0000
13075SI     SI113075   0.500   2.675   9.599  0.0000  0.0000  0.0000
13076SI     SI113076   0.035   2.852   9.032  0.0000  0.0000  0.0000
13077SI     SI113077   3.332   8.616   9.215  0.0000  0.0000  0.0000
13078SI     SI113078   2.344   1.384   8.760  0.0000  0.0000  0.0000
13079SI     SI113079   5.619   0.600   9.241  0.0000  0.0000  0.0000
13080SI     SI113080   2.736   5.362   9.255  0.0000  0.0000  0.0000
13081SI     SI113081   8.235   1.952   0.364  0.0000  0.0000  0.0000
13082SI     SI113082   8.755   5.612   0.683  0.0000  0.0000  0.0000
13083SI     SI113083   7.636   7.781   8.358  0.0000  0.0000  0.0000
13084SI     SI113084   3.490   4.852   9.499  0.0000  0.0000  0.0000
13085SI     SI113085   3.359   1.677   0.907  0.0000  0.0000  0.0000
13086SI     SI113086   1.473   1.504   1.306  0.0000  0.0000  0.0000
13087SI     SI113087   4.019   6.744   1.083  0.0000  0.0000  0.0000
13088SI     SI113088   9.520   3.184   9.390  0.0000  0.0000  0.0000
13089SI     SI113089   4.685   6.794   1.120  0.0000  0.0000  0.0000
13090SI     SI113090   1.033   9.295   9.349  0.0000  0.0000  0.0000
13091SI     SI113091   0.965   9.465   9.093  0.0000  0.0000  0.0000
13092SI     SI113092   5.337   8.706   0.700  0.0000  0.0000  0.0000
13093SI     SI113093   6.053   1.314   0.641  0.0000  0.0000  0.0000
13094SI     SI113094   6.621   5.129   8.619  0.0000  0.0000  0.0000
13095SI     SI113095   4.127   8.304   8.790  0.0000  0.0000  0.0000
13096SI     SI113096   7.381   6.861   1.135  0.0000  0.0000  0.0000
13097SI     SI113097   0.438   6.333   8.798  0.0000  0.0000  0.0000
13098SI     SI113098   8.038   9.319   9.339  0.0000  0.0000  0.0000
13099SI     SI113099   6.726   4.436   0.103  0.0000  0.0000  0.0000
13100SI     SI113100   8.673   0.125   9.342  0.0000  0.0000  0.0000
13101SI     SI113101   4.429   3.470   8.388  0.0000  0.0000  0.0000
13102SI     SI113102   0.912   0.893   9.119  0.0000  0.0000  0.0000
13103SI     SI113103   4.364   0.005   0.851  0.0000  0.0000  0.0000
13104SI     SI113104   3.887   9.599   8.572  0.0000  0.0000  0.0000
13105SI     SI113105   1.374   9.590   9.532  0.0000  0.0000  0.0000
13106SI     SI113106   8.867   7.422   8.823  0.0000  0.0000  0.0000
13107SI     SI113107   4.097   3.401   9.232  0.0000  0.0000  0.0000
13108SI     SI113108   9.251   4.431   1.326  0.0000  0.0000  0.0000
13109SI     SI113109   4.722   4.640   0.528  0.0000  0.0000  0.0000
13110SI     SI113110   7.424   4.865   8.966  0.0000  0.0000  0.0000
13111SI     SI113111   0.050   7.655   8.461  0.0000  0.0000  0.0000
13112SI     SI113112   6.188   2.386   0.416  0.0000  0.0000  0.0000
13113SI     SI113113   7.781   8.237   9.413  0.0000  0.0000  0.0000
13114SI     SI113114   3.656   8.789   9.496  0.0000  0.0000  0.0000
13115SI     SI113115   6.220   4.178   9.246  0.0000  0.0000  0.0000
13116SI     SI113116   3.494   1.402   0.947  0.0000  0.0000  0.0000
13117SI     SI113117   2.760   4.435   0.575  0.0000  0.0000  0.0000
13118SI     SI113118   2.451   3.919   8.441  0.0000  0.0000  0.0000
13119SI     SI113119   0.666   9.484   9.032  0.0000  0.0000  0.0000
13120SI     SI113120   9.079   7.655   0.175  0.0000  0.0000  0.0000
13121SI     SI113121   8.180   2.588   8.395  0.0000  0.0000  0.0000
13122SI     SI113122   1.162   5.108   9.514  0.0000  0.0000  0.0000
13123SI     SI113123   8.327   9.581   8.510  0.0000  0.0000  0.0000
13124SI     SI113124   0.363   1.931   8.657  0.0000  0.0000  0.0000
13125SI     SI113125   7.287   8.592   8.659  0.0000  0.0000  0.0000
13126SI     SI113126   5.507   7.885   1.067  0.0000  0.0000  0.0000
13127SI     SI113127   7.634   5.888   0.721  0.0000  0.0000  0.0000
13128SI     SI113128   6.627   4.565   8.765  0.0000  0.0000  0.0000
13129SI     SI113129   3.671   3.466   9.517  0.0000  0.0000  0.0000
13130SI     SI113130   5.782   1.140   1.139  0.0000  0.0000  0.0000
13131SI     SI113131   4.789   8.655   0.544  0.0000  0.0000  0.0000
13132SI     SI113132   9.503   3.256   0.566  0.0000  0.0000  0.0000
13133SI     SI113133   5.586   8.752   9.536  0.0000  0.0000  0.0000
13134SI     SI113134   0.833   3.503   1.166  0.0000  0.0000  0.0000
13135SI     SI113135   2.565   9.050   1.148  0.0000  0.0000  0.0000
13136SI     SI113136   9.030   7.601   8.630  0.0000  0.0000  0.0000
13137SI     SI113137   7.522   2.307   0.370  0.0000  0.0000  0.0000
13138SI     SI113138   5.203   0.189   8.638  0.0000  0.0000  0.0000
13139SI     SI113139   8.452   5.888   8.456  0.0000  0.0000  0.0000
13140SI     SI113140   1.499   2.131   9.182  0.0000  0.0000  0.0000
13141SI     SI113141   9.376   9.064   0.824  0.0000  0.0000  0.0000
13142SI     SI113142   4.108   4.017   0.418  0.0000  0.0000  0.0000
13143SI     SI113143   6.071   7.245   9.185  0.0000  0.0000  0.0000
13144SI     SI113144   5.653   6.879   0.294  0.0000  0.0000  0.0000
13145SI     SI113145   6.274   7.352   0.091  0.0000  0.0000  0.0000
13146SI     SI113146   6.122   5.763   0.327  0.0000  0.0000  0.0000
13147SI     SI113147   4.842   3.550   0.147  0.0000  0.0000  0.0000
13148SI     SI113148   7.679   4.167   0.231  0.0000  0.0000  0.0000
13149SI     SI113149   5.740   1.923   1.134  0.0000  0.0000  0.0000
13150SI     SI113150   9.028   8.282   9.506  0.0000  0.0000  0.0000
13151SI     SI113151   5.390   1.290   1.044  0.0000  0.0000  0.0000
13152SI     SI113152   2.089   3.338   8.367  0.0000  0.0000  0.0000
13153SI     SI113153   6.677   7.214   9.471  0.0000  0.0000  0.0000
13154SI     SI113154   6.388   5.952   1.405  0.0000  0.0000  0.0000
13155SI     SI113155   5.351   6.564   0.146  0.0000  0.0000  0.0000
13156SI     SI113156   4.390   8.267   8.967  0.0000  0.0000  0.0000
13157SI     SI113157   9.417   2.613   9.392  0.0000  0.0000  0.0000
13158SI     SI113158   8.052   8.189   0.623  0.0000  0.0000  0.0000
13159SI     SI113159   2.596   7.633   0.815  0.0000  0.0000  0.0000
13160SI     SI113160   8.195   8.896   9.457  0.0000  0.0000  0.0000
13161SI     SI113161   2.121   5.936   8.207  0.0000  0.0000  0.0000
13162SI     SI113162   6.003   1.771   0.693  0.0000  0.0000  0.0000
13163SI     SI113163   5.580   1.568   0.663  0.0000  0.0000  0.0000
13164SI     SI113164   9.568   5.921   0.940  0.0000  0.0000  0.0000
13165SI     SI113165   1.120   3.829   8.709  0.0000  0.0000  0.0000
13166SI     SI113166   2.066   1.193   0.571  0.0000  0.0000  0.0000
13167SI     SI113167   6.868   5.396   9.051  0.0000  0.0000  0.0000
13168SI     SI113168   6.859   9.346   9.329  0.0000  0.0000  0.0000
13169SI     SI113169   5.110   8.941   0.016  0.0000  0.0000  0.0000
13170SI     SI113170   1.744   7.688   0.370  0.0000  0.0000  0.0000
13171SI     SI113171   0.902   4.469   8.925  0.0000  0.0000  0.0000
13172SI     SI113172   5.997   5.022   8.494  0.0000  0.0000  0.0000
13173SI     SI113173   3.736   8.096   8.696  0.0000  0.0000  0.0000
13174SI     SI113174   7.521   6.878   8.983  0.0000  0.0000  0.0000
13175SI     SI113175   6.612   7.525   9.438  0.0000  0.0000  0.0000
13176SI     SI113176   3.196   5.117   0.928  0.0000  0.0000  0.0000
13177SI     SI113177   4.565   0.951   0.252  0.0000  0.0000  0.0000
13178SI     SI113178   5.356   0.546   8.273  0.0000  0.0000  0.0000
13179SI     SI113179   1.906   5.453   8.254  0.0000  0.0000  0.0000
13180SI     SI113180   7.274   3.579   8.196  0.0000  0.0000  0.0000
13181SI     SI113181   4.374   2.415   0.175  0.0000  0.0000  0.0000
13182SI     SI113182   9.417   0.974   9.488  0.0000  0.0000  0.0000
13183SI     SI113183   1.607   5.877   9.524  0.0000  0.0000  0.0000
13184SI     SI113184   8.198   8.687   8.872  0.0000  0.0000  0.0000
13185SI     SI113185   1.745   3.319   8.678  0.0000  0.0000  0.0000
13186SI     SI113186   0.082   0.855   9.577  0.0000  0.0000  0.0000
13187SI     SI113187   5.790   8.812   0.453  0.0000  0.0000  0.0000
13188SI     SI113188   7.532   2.513   8.929  0.0000  0.0000  0.0000
13189SI     SI113189   7.576   2.234   8.428  0.0000  0.0000  0.0000
13190SI     SI113190   2.139   0.498   0.903  0.0000  0.0000  0.0000
13191SI     SI113191   0.886   1.559   9.504  0.0000  0.0000  0.0000
13192SI     SI113192   1.122   3.664   9.403  0.0000  0.0000  0.0000
13193SI     SI113193   2.157   5.040   8.314  0.0000  0.0000  0.0000
13194SI     SI113194   6.168   2.293   1.082  0.0000  0.0000  0.0000
13195SI     SI113195   2.764   9.116   9.330  0.0000  0.0000  0.0000
13196SI     SI113196   8.139   7.715   0.483  0.0000  0.0000  0.0000
13197SI     SI113197   3.449   9.173   0.088  0.0000  0.0000  0.0000
13198SI     SI113198   7.823   8.932   8.637  0.0000  0.0000  0.0000
13199SI     SI113199   5.963   5.235   9.204  0.0000  0.0000  0.0000
13200SI     SI113200   7.047   2.909   8.364  0.0000  0.0000  0.0000
13201SI     SI113201   6.147   8.455   0.850  0.0000  0.0000  0.0000
13202SI     SI113202   1.287   6.433   1.157  0.0000  0.0000  0.0000
13203SI     SI113203   6.443   3.175   1.040  0.0000  0.0000  0.0000
13204SI     SI113204   3.458   5.967   8.924  0.0000  0.0000  0.0000
13205SI     SI113205   1.683   2.443   0.535  0.0000  0.0000  0.0000
13206SI     SI113206   4.044   0.747   8.841  0.0000  0.0000  0.0000
13207SI     SI113207   3.177   2.526   0.531  0.0000  0.0000  0.0000
13208SI     SI113208   7.109   2.873   9.053  0.0000  0.0000  0.0000
13209SI     SI113209   7.091   6.310   9.208  0.0000  0.0000  0.0000
13210SI     SI113210   3.713   7.369   0.855  0.0000  0.0000  0.0000
13211SI     SI113211   4.882   2.860   9.523  0.0000  0.0000  0.0000
13212SI     SI113212   2.738   6.514   0.021  0.0000  0.0000  0.0000
13213SI     SI113213   2.954   9.392   1.021  0.0000  0.0000  0.0000
13214SI     SI113214   1.824   6.497   9.206  0.0000  0.0000  0.0000
13215SI     SI113215   6.599   6.753   8.470  0.0000  0.0000  0.0000
13216SI     SI113216   4.943   2.208   0.952  0.0000  0.0000  0.0000
13217SI     SI113217   7.613   3.684   0.936  0.0000  0.0000  0.0000
13218SI     SI113218   3.459   8.935   8.557  0.0000  0.0000  0.0000
13219SI     SI113219   6.596   0.853   8.726  0.0000  0.0000  0.0000
13220SI     SI113220   5.079   9.048   0.486  0.0000  0.0000  0.0000
13221SI     SI113221   7.441   4.727   9.466  0.0000  0.0000  0.0000
13222SI     SI113222   8.186   0.313   8.748  0.0000  0.0000  0.0000
13223SI     SI113223   0.745   2.467   9.256  0.0000  0.0000  0.0000
13224SI     SI113224   3.850   8.066   0.388  0.0000  0.0000  0.0000
13225SI     SI113225   2.042   9.207   0.872  0.0000  0.0000  0.0000
13226SI     SI113226   5.141   5.957   1.007  0.0000  0.0000  0.0000
13227SI     SI113227   2.076   1.193   8.413  0.0000  0.0000  0.0000
13228SI     SI113228   6.640   6.681   9.579  0.0000  0.0000  0.0000
13229SI     SI113229   7.025   2.249   1.006  0.0000  0.0000  0.0000
13230SI     SI113230   0.675   5.670   9.178  0.0000  0.0000  0.0000
13231SI     SI113231   6.501   5.713   9.038  0.0000  0.0000  0.0000
13232SI     SI113232   6.907   2.292   8.530  0.0000  0.0000  0.0000
13233SI     SI113233   0.222   1.480   0.599  0.0000  0.0000  0.0000
13234SI     SI113234   8.911   4.758   1.222  0.0000  0.0000  0.0000
13235SI     SI113235   8.112   8.398   0.077  0.0000  0.0000  0.0000
13236SI     SI113236   3.350   3.243   9.310  0.0000  0.0000  0.0000
13237SI     SI113237   9.581   3.887   0.606  0.0000  0.0000  0.0000
13238SI     SI113238   5.099   7.640   8.880  0.0000  0.0000  0.0000
13239SI     SI113239   5.165   6.108   0.071  0.0000  0.0000  0.0000
13240SI     SI113240   3.112   5.695   9.567  0.0000  0.0000  0.0000
13241SI     SI113241   0.109   8.560   0.785  0.0000  0.0000  0.0000
13242SI     SI113242   8.136   1.178   1.292  0.0000  0.0000  0.0000
13243SI     SI113243   7.501   8.499   0.936  0.0000  0.0000  0.0000
13244SI     SI113244   2.166   2.906   0.819  0.0000  0.0000  0.0000
13245SI     SI113245   6.187   1.065   0.790  0.0000  0.0000  0.0000
13246SI     SI113246   2.605   9.554   0.409  0.0000  0.0000  0.0000
13247SI     SI113247   0.048   5.209   9.010  0.0000  0.0000  0.0000
13248SI     SI113248   8.015   8.265   8.216  0.0000  0.0000  0.0000
13249SI     SI113249   8.639   9.036   8.877  0.0000  0.0000  0.0000
13250SI     SI113250   4.394   6.128   0.143  0.0000  0.0000  0.0000
13251SI     SI113251   6.156   5.701   0.922  0.0000  0.0000  0.0000
13252SI     SI113252   2.273   8.868   0.829  0.0000  0.0000  0.0000
13253SI     SI113253   0.164   0.514   1.172  0.0000  0.0000  0.0000
13254SI     SI113254   0.995   4.493   0.069  0.0000  0.0000  0.0000
13255SI     SI113255   3.552   1.694   9.550  0.0000  0.0000  0.0000
13256SI     SI113256   2.902   6.939   0.614  0.0000  0.0000  0.0000
13257SI     SI113257   3.728   0.887   9.110  0.0000  0.0000  0.0000
13258SI     SI113258   0.932   2.582   0.914  0.0000  0.0000  0.0000
13259SI     SI113259   6.269   5.606   1.182  0.0000  0.0000  0.0000
13260SI     SI113260   9.138   6.990   0.114  0.0000  0.0000  0.0000
13261SI     SI113261   0.717   0.814   8.644  0.0000  0.0000  0.0000
13262SI     SI113262   7.100   7.226   0.555  0.0000  0.0000  0.0000
13263SI     SI113263   7.780   4.009   9.000  0.0000  0.0000  0.0000
13264SI     SI113264   3.658   3.274   0.159  0.0000  0.0000  0.0000
13265SI     SI113265   3.361   5.676   8.599  0.0000  0.0000  0.0000
13266SI     SI113266   1.026   1.107   9.323  0.0000  0.0000  0.0000
13267SI     SI113267   2.591   9.100   8.883  0.0000  0.0000  0.0000
13268SI     SI113268   4.285   6.600   1.052  0.0000  0.0000  0.0000
13269SI     SI113269   4.337   3.417   1.124  0.0000  0.0000  0.0000
13270SI     SI113270   5.022   0.106   8.401  0.0000  0.0000  0.0000
13271SI     SI113271   2.499   2.691   0.332  0.0000  0.0000  0.0000
13272SI     SI113272   3.341   2.842   8.682  0.0000  0.0000  0.0000
13273SI     SI113273   6.610   2.161   0.220  0.0000  0.0000  0.0000
13274SI     SI113274   5.247   3.267   0.412  0.0000  0.0000  0.0000
13275SI     SI113275   7.144   2.428   8.372  0.0000  0.0000  0.0000
13276SI     SI113276   3.416   6.176   8.439  0.0000  0.0000  0.0000
13277SI     SI113277   2.889   1.626   9.127  0.0000  0.0000  0.0000
13278SI     SI113278   1.771   2.741   0.465  0.0000  0.0000  0.0000
13279SI     SI113279   1.157   5.176   0.755  0.0000  0.0000  0.0000
13280SI     SI113280   8.718   4.393   0.284  0.0000  0.0000  0.0000
13281SI     SI113281   3.357   6.667   8.756  0.0000  0.0000  0.0000
13282SI     SI113282   3.622   3.494   0.811  0.0000  0.0000  0.0000
13283SI     SI113283   0.805   9.114   9.455  0.0000  0.0000  0.0000
13284SI     SI113284   7.632   3.466   8.949  0.0000  0.0000  0.0000
13285SI     SI113285   0.239   0.111   9.239  0.0000  0.0000  0.0000
13286SI     SI113286   4.463   7.871   9.266  0.0000  0.0000  0.0000
13287SI     SI113287   8.949   9.478   1.003  0.0000  0.0000  0.0000
13288SI     SI113288   2.430   4.601   0.945  0.0000  0.0000  0.0000
13289SI     SI113289   1.019   0.858   0.552  0.0000  0.0000  0.0000
13290SI     SI113290   3.390   7.269   9.594  0.0000  0.0000  0.0000
13291SI     SI113291   3.304   2.279   0.923  0.0000  0.0000  0.0000
13292SI     SI113292   3.058   4.441   0.589  0.0000  0.0000  0.0000
13293SI     SI113293   0.652   3.039   1.139  0.0000  0.0000  0.0000
13294SI     SI113294   7.441   2.251   9.340  0.0000  0.0000  0.0000
13295SI     SI113295   9.121   2.303   9.097  0.0000  0.0000  0.0000
13296SI     SI113296   7.397   3.650   0.210  0.0000  0.0000  0.0000
13297SI     SI113297   6.631   0.296   0.488  0.0000  0.0000  0.0000
13298SI     SI113298   4.730   4.801   8.421  0.0000  0.0000  0.0000
13299SI     SI113299   2.390   8.596   0.760  0.0000  0.0000  0.0000
13300SI     SI113300   4.673   5.919   9.353  0.0000  0.0000  0.0000
13301SI     SI113301   2.739   1.443   0.683  0.0000  0.0000  0.0000
13302SI     SI113302   3.286   0.868   1.001  0.0000  0.0000  0.0000
13303SI     SI113303   4.027   8.820   1.027  0.0000  0.0000  0.0000
13304SI     SI113304   8.381   1.290   0.077  0.0000  0.0000  0.0000
13305SI     SI113305   1.456   5.987   1.198  0.0000  0.0000  0.0000
13306SI     SI113306   3.251   7.308   0.732  0.0000  0.0000  0.0000
13307SI     SI113307   7.132   2.543   1.037  0.0000  0.0000  0.0000
13308SI     SI113308   1.691   6.840   0.869  0.0000  0.0000  0.0000
13309SI     SI113309   0.056   5.262   0.435  0.0000  0.0000  0.0000
13310SI     SI113310   8.520   4.407   1.208  0.0000  0.0000  0.0000
13311SI     SI113311   6.659   7.662   0.830  0.0000  0.0000  0.0000
13312SI     SI113312   6.906   9.537   0.929  0.0000  0.0000  0.0000
13313SI     SI113313   1.280   7.128   9.413  0.0000  0.0000  0.0000
13314SI     SI113314   2.169   3.704   8.796  0.0000  0.0000  0.0000
13315SI     SI113315   3.577   4.542   0.675  0.0000  0.0000  0.0000
13316SI     SI113316   1.645   6.734   8.850  0.0000  0.0000  0.0000
13317SI     SI113317   2.199   7.015   0.760  0.0000  0.0000  0.0000
13318SI     SI113318   1.407   5.721   0.036  0.0000  0.0000  0.0000
13319SI     SI113319   5.071   6.312   8.915  0.0000  0.0000  0.0000
13320SI     SI113320   7.742   5.745   8.365  0.0000  0.0000  0.0000
13321SI     SI113321   1.152   1.861   1.255  0.0000  0.0000  0.0000
13322SI     SI113322   0.551   9.280   0.307  0.0000  0.0000  0.0000
13323SI     SI113323   7.642   9.158   0.223  0.0000  0.0000  0.0000
13324SI     SI113324   7.947   6.929   0.278  0.0000  0.0000  0.0000
13325SI     SI113325   2.571   0.247   0.899  0.0000  0.0000  0.0000
13326SI     SI113326   1.345   1.601   0.374  0.0000  0.0000  0.0000
13327SI     SI113327   1.557   6.901   0.447  0.0000  0.0000  0.0000
13328SI     SI113328   4.119   6.777   9.060  0.0000  0.0000  0.0000
13329SI     SI113329   5.529   8.695   9.002  0.0000  0.0000  0.0000
13330SI     SI113330   9.125   4.634   0.379  0.0000  0.0000  0.0000
13331SI     SI113331   5.870   9.411   8.520  0.0000  0.0000  0.0000
13332SI     SI113332   1.829   1.383   0.654  0.0000  0.0000  0.0000
13333SI     SI113333   2.301   4.996   8.567  0.0000  0.0000  0.0000
13334SI     SI113334   2.156   7.748   8.672  0.0000  0.0000  0.0000
13335SI     SI113335   5.183   0.722   9.531  0.0000  0.0000  0.0000
13336SI     SI113336   6.814   0.057   9.341  0.0000  0.0000  0.0000
13337SI     SI113337   5.438   5.946   0.025  0.0000  0.0000  0.0000
13338SI     SI113338   4.558   7.072   8.853  0.0000  0.0000  0.0000
13339SI     SI113339   1.264   5.619   8.427  0.0000  0.0000  0.0000
13340SI     SI113340   6.618   3.534   9.366  0.0000  0.0000  0.0000
13341SI     SI113341   0.741   3.352   9.246  0.0000  0.0000  0.0000
13342SI     SI113342   6.469   1.026   8.959  0.0000  0.0000  0.0000
13343SI     SI113343   3.687   1.609   1.092  0.0000  0.0000  0.0000
13344SI     SI113344   3.399   0.337   0.873  0.0000  0.0000  0.0000
13345SI     SI113345   6.471   4.888   9.486  0.0000  0.0000  0.0000
13346SI     SI113346   4.224   6.831   8.788  0.0000  0.0000  0.0000
13347SI     SI113347   9.023   3.480   8.519  0.0000  0.0000  0.0000
13348SI     SI113348   2.422   5.181   0.430  0.0000  0.0000  0.0000
13349SI     SI113349   6.836   7.409   0.207  0.0000  0.0000  0.0000
13350SI     SI113350   9.033   1.794   0.795  0.0000  0.0000  0.0000
13351SI     SI113351   8.541   3.696   1.244  0.0000  0.0000  0.0000
13352SI     SI113352   4.859   1.830   0.237  0.0000  0.0000  0.0000
13353SI     SI113353   3.474   6.174   9.450  0.0000  0.0000  0.0000
13354SI     SI113354   4.826   4.736   0.244  0.0000  0.0000  0.0000
13355SI     SI113355   9.214   1.218   9.141  0.0000  0.0000  0.0000
13356SI     SI113356   7.826   9.040   1.006  0.0000  0.0000  0.0000
13357SI     SI113357   1.272   3.152   0.449  0.0000  0.0000  0.0000
13358SI     SI113358   9.054   3.337   8.991  0.0000  0.0000  0.0000
13359SI     SI113359   2.216   4.534   9.523  0.0000  0.0000  0.0000
13360SI     SI113360   3.514   1.924   9.156  0.0000  0.0000  0.0000
13361SI     SI113361   6.966   8.619   8.870  0.0000  0.0000  0.0000
13362SI     SI113362   0.159   3.684   0.764  0.0000  0.0000  0.0000
13363SI     SI113363   4.561   3.437   9.305  0.0000  0.0000  0.0000
13364SI     SI113364   2.548   6.673   0.490  0.0000  0.0000  0.0000
13365SI     SI113365   9.185   9.318   0.475  0.0000  0.0000  0.0000
13366SI     SI113366   0.116   6.768   8.388  0.0000  0.0000  0.0000
13367SI     SI113367   2.610   7.256   1.110  0.0000  0.0000  0.0000
13368SI     SI113368   1.387   2.310   0.880  0.0000  0.0000  0.0000
13369SI     SI113369   5.124   0.201   9.535  0.0000  0.0000  0.0000
13370SI     SI113370   0.393   1.148   8.335  0.0000  0.0000  0.0000
13371SI     SI113371   6.588   1.272   9.528  0.0000  0.0000  0.0000
13372SI     SI113372   1.856   8.339   9.294  0.0000  0.0000  0.0000
13373SI     SI113373   3.845   1.462   8.695  0.0000  0.0000  0.0000
13374SI     SI113374   2.160   4.450   0.854  0.0000  0.0000  0.0000
13375SI     SI113375   3.569   7.873   8.568  0.0000  0.0000  0.0000
13376SI     SI113376   5.491   7.490   8.484  0.0000  0.0000  0.0000
13377SI     SI113377   1.624   3.763   8.445  0.0000  0.0000  0.0000
13378SI     SI113378   5.039   2.652   9.357  0.0000  0.0000  0.0000
13379SI     SI113379   0.110   7.845   8.707  0.0000  0.0000  0.0000
13380SI     SI113380   0.583   0.006   9.538  0.0000  0.0000  0.0000
13381SI     SI113381   4.304   2.332   1.003  0.0000  0.0000  0.0000
13382SI     SI113382   6.934   8.860   9.586  0.0000  0.0000  0.0000
13383SI     SI113383   0.549   3.531   9.061  0.0000  0.0000  0.0000
13384SI     SI113384   1.722   8.257   8.622  0.0000  0.0000  0.0000
13385SI     SI113385   3.280   3.056   8.453  0.0000  0.0000  0.0000
13386SI     SI113386   9.574   5.497   0.060  0.0000  0.0000  0.0000
13387SI     SI113387   2.074   7.852   9.389  0.0000  0.0000  0.0000
13388SI     SI113388   0.891   3.296   0.753  0.0000  0.0000  0.0000
13389SI     SI113389   7.628   0.007   8.494  0.0000  0.0000  0.0000
13390SI     SI113390   9.369   7.230   0.838  0.0000  0.0000  0.0000
13391SI     SI113391   9.467   6.756   0.440  0.0000  0.0000  0.0000
13392SI     SI113392   6.565   8.847   0.217  0.0000  0.0000  0.0000
13393SI     SI113393   0.393   5.424   0.940  0.0000  0.0000  0.0000
13394SI     SI113394   0.238   6.487   8.363  0.0000  0.0000  0.0000
13395SI     SI113395   6.772   1.205   0.395  0.0000  0.0000  0.0000
13396SI     SI113396   5.722   3.712   9.301  0.0000  0.0000  0.0000
13397SI     SI113397   8.732   2.519   1.252  0.0000  0.0000  0.0000
13398SI     SI113398   6.429   6.457   9.548  0.0000  0.0000  0.0000
13399SI     SI113399   2.781   8.444   0.455  0.0000  0.0000  0.0000
13400SI     SI113400   3.281   8.407   8.979  0.0000  0.0000  0.0000
13401SI     SI113401   8.385   1.108   0.558  0.0000  0.0000  0.0000
13402SI     SI113402   0.407   3.380   1.286  0.0000  0.0000  0.0000
13403SI     SI113403   0.922   5.728   9.357  0.0000  0.0000  0.0000
13404SI     SI113404   9.259   5.141   0.003  0.0000  0.0000  0.0000
13405SI     SI113405   6.899   5.518   8.478  0.0000  0.0000  0.0000
13406SI     SI113406   8.556   4.661   0.346  0.0000  0.0000  0.0000
13407SI     SI113407   0.933   7.396   8.842  0.0000  0.0000  0.0000
13408SI     SI113408   9.227   8.108   0.242  0.0000  0.0000  0.0000
13409SI     SI113409   3.082   4.786   9.566  0.0000  0.0000  0.0000
13410SI     SI113410   9.215   9.465   1.143  0.0000  0.0000  0.0000
13411SI     SI113411   7.233   0.297   0.749  0.0000  0.0000  0.0000
13412SI     SI113412   0.678   1.596   0.807  0.0000  0.0000  0.0000
13413SI     SI113413   9.358   3.263   0.297  0.0000  0.0000  0.0000
13414SI     SI113414   7.063   9.090   0.395  0.0000  0.0000  0.0000
13415SI     SI113415   3.373   1.008   0.729  0.0000  0.0000  0.0000
13416SI     SI113416   2.002   5.531   1.120  0.0000  0.0000  0.0000
13417SI     SI113417   3.796   2.383   9.017  0.0000  0.0000  0.0000
13418SI     SI113418   7.040   2.257   0.268  0.0000  0.0000  0.0000
13419SI     SI113419   6.997   5.787   9.277  0.0000  0.0000  0.0000
13420SI     SI113420   8.250   7.213   0.658  0.0000  0.0000  0.0000
13421SI     SI113421   2.087   4.086   0.691  0.0000  0.0000  0.0000
13422SI     SI113422   2.115   6.554   0.756  0.0000  0.0000  0.0000
13423SI     SI113423   3.171   4.229   0.248  0.0000  0.0000  0.0000
13424SI     SI113424   5.292   3.458   8.388  0.0000  0.0000  0.0000
13425SI     SI113425   8.896   8.561   8.997  0.0000  0.0000  0.0000
13426SI     SI113426   3.318   4.753   8.984  0.0000  0.0000  0.0000
13427SI     SI113427   3.906   4.979   8.830  0.0000  0.0000  0.0000
13428SI     SI113428   6.056   3.157   9.290  0.0000  0.0000  0.0000
13429SI     SI113429   7.808   1.092   9.330  0.0000  0.0000  0.0000
13430SI     SI113430   4.961   4.146   0.346  0.0000  0.0000  0.0000
13431SI     SI113431   0.876   4.014   0.898  0.0000  0.0000  0.0000
13432SI     SI113432   8.810   4.510   0.011  0.0000  0.0000  0.0000
13433SI     SI113433   5.671   2.412   0.179  0.0000  0.0000  0.0000
13434SI     SI113434   3.496   4.008   1.052  0.0000  0.0000  0.0000
13435SI     SI113435   5.501   3.802   8.783  0.0000  0.0000  0.0000
13436SI     SI113436   9.372   5.279   8.573  0.0000  0.0000  0.0000
13437SI     SI113437   2.208   3.596   0.659  0.0000  0.0000  0.0000
13438SI     SI113438   7.508   7.614   9.054  0.0000  0.0000  0.0000
13439SI     SI113439   0.580   4.619   9.584  0.0000  0.0000  0.0000
13440SI     SI113440   7.783   5.629   8.889  0.0000  0.0000  0.0000
13441SI     SI113441   5.121   0.674   0.990  0.0000  0.0000  0.0000
13442SI     SI113442   2.592   4.050   9.529  0.0000  0.0000  0.0000
13443SI     SI113443   2.722   4.668   8.964  0.0000  0.0000  0.0000
13444SI     SI113444   2.416   1.461   8.459  0.0000  0.0000  0.0000
13445SI     SI113445   3.929   5.126   0.846  0.0000  0.0000  0.0000
13446SI     SI113446   6.361   9.413   8.491  0.0000  0.0000  0.0000
13447SI     SI113447   5.234   4.424   9.051  0.0000  0.0000  0.0000
13448SI     SI113448   4.840   1.969   9.088  0.0000  0.0000  0.0000
13449SI     SI113449   4.847   6.004   8.783  0.0000  0.0000  0.0000
13450SI     SI113450   8.651   1.118   8.720  0.0000  0.0000  0.0000
13451SI     SI113451   7.116   2.990   1.288  0.0000  0.0000  0.0000
13452SI     SI113452   2.047   7.347   9.467  0.0000  0.0000  0.0000
13453SI     SI113453   1.572   8.268   0.145  0.0000  0.0000  0.0000
13454SI     SI113454   7.204   9.529   0.218  0.0000  0.0000  0.0000
13455SI     SI113455   1.173   9.543   0.924  0.0000  0.0000  0.0000
13456SI     SI113456   1.449   7.640   0.943  0.0000  0.0000  0.0000
13457SI     SI113457   4.921   7.387   8.950  0.0000  0.0000  0.0000
13458SI     SI113458   8.365   8.126   1.009  0.0000  0.0000  0.0000
13459SI     SI113459   2.223   8.607   8.741  0.0000  0.0000  0.0000
13460SI     SI113460   3.783   6.604   8.840  0.0000  0.0000  0.0000
13461SI     SI113461   1.019   6.642   0.923  0.0000  0.0000  0.0000
13462SI     SI113462   3.874   6.208   8.597  0.0000  0.0000  0.0000
13463SI     SI113463   5.189   7.763   0.759  0.0000  0.0000  0.0000
13464SI     SI113464   6.141   2.628   0.594  0.0000  0.0000  0.0000
13465SI     SI113465   7.031   0.727   1.309  0.0000  0.0000  0.0000
13466SI     SI113466   2.871   5.389   0.265  0.0000  0.0000  0.0000
13467SI     SI113467   7.591   1.276   8.575  0.0000  0.0000  0.0000
13468SI     SI113468   1.864   6.677   0.679  0.0000  0.0000  0.0000
13469SI     SI113469   2.816   8.915   0.708  0.0000  0.0000  0.0000
13470SI     SI113470   7.276   0.657   0.404  0.0000  0.0000  0.0000
13471SI     SI113471   4.231   6.028   9.004  0.0000  0.0000  0.0000
13472SI     SI113472   6.960   5.010   9.021  0.0000  0.0000  0.0000
13473SI     SI113473   7.880   4.590   0.208  0.0000  0.0000  0.0000
13474SI     SI113474   5.406   8.404   1.143  0.0000  0.0000  0.0000
13475SI     SI113475   0.477   2.416   9.420  0.0000  0.0000  0.0000
13476SI     SI113476   2.529   9.357   1.145  0.0000  0.0000  0.0000
13477SI     SI113477   5.361   7.971   8.856  0.0000  0.0000  0.0000
13478SI     SI113478   8.253   3.449   9.010  0.0000  0.0000  0.0000
13479SI     SI113479   3.591   5.993   1.132  0.0000  0.0000  0.0000
13480SI     SI113480   9.512   4.570   1.305  0.0000  0.0000  0.0000
13481SI     SI113481   3.642   6.660   9.344  0.0000  0.0000  0.0000
13482SI     SI113482   5.482   1.421   8.518  0.0000  0.0000  0.0000
13483SI     SI113483   2.905   7.827   9.251  0.0000  0.0000  0.0000
13484SI     SI113484   6.134   8.771   0.818  0.0000  0.0000  0.0000
13485SI     SI113485   2.334   1.328   0.505  0.0000  0.0000  0.0000
13486SI     SI113486   5.833   4.770   9.075  0.0000  0.0000  0.0000
13487SI     SI113487   2.554   6.907   8.471  0.0000  0.0000  0.0000
13488SI     SI113488   0.036   3.022   0.005  0.0000  0.0000  0.0000
13489SI     SI113489   7.303   9.511   9.535  0.0000  0.0000  0.0000
13490SI     SI113490   1.731   3.751   9.471  0.0000  0.0000  0.0000
13491SI     SI113491   6.076   3.897   0.124  0.0000  0.0000  0.0000
13492SI     SI113492   5.920   5.773   8.514  0.0000  0.0000  0.0000
13493SI     SI113493   1.089   0.289   1.222  0.0000  0.0000  0.0000
13494SI     SI113494   2.775   5.775   8.608  0.0000  0.0000  0.0000
13495SI     SI113495   0.912   1.548   0.214  0.0000  0.0000  0.0000
13496SI     SI113496   1.203   8.025   0.785  0.0000  0.0000  0.0000
13497SI     SI113497   7.536   2.667   8.676  0.0000  0.0000  0.0000
13498SI     SI113498   3.047   1.288   9.474  0.0000  0.0000  0.0000
13499SI     SI113499   7.368   2.544   0.821  0.0000  0.0000  0.0000
13500SI     SI113500   0.436   1.692   9.397  0.0000  0.0000  0.0000
13501SI     SI113501   6.993   2.094   8.743  0.0000  0.0000  0.0000
13502SI     SI113502   4.774   9.025   0.866  0.0000  0.0000  0.0000
13503SI     SI113503   3.009   4.421   8.548  0.0000  0.0000  0.0000
13504SI     SI113504   2.070   1.292   8.707  0.0000  0.0000  0.0000
13505SI     SI113505   8.216   3.688   8.825  0.0000  0.0000  0.0000
13506SI     SI113506   1.175   0.865   1.042  0.0000  0.0000  0.0000
13507SI     SI113507   9.542   9.364   8.748  0.0000  0.0000  0.0000
13508SI     SI113508   2.262   0.016   9.039  0.0000  0.0000  0.0000
13509SI     SI113509   9.391   4.046   8.935  0.0000  0.0000  0.0000
13510SI     SI113510   4.965   5.253   8.338  0.0000  0.0000  0.0000
13511SI     SI113511   7.394   5.381   0.472  0.0000  0.0000  0.0000
13512SI     SI113512   2.154   4.297   8.502  0.0000  0.0000  0.0000
13513SI     SI113513   9.534   8.818   1.269  0.0000  0.0000  0.0000
13514SI     SI113514   7.894   0.663   9.573  0.0000  0.0000  0.0000
13515SI     SI113515   6.437   2.409   0.246  0.0000  0.0000  0.0000
13516SI     SI113516   8.124   5.284   9.129  0.0000  0.0000  0.0000
13517SI     SI113517   9.101   1.271   0.013  0.0000  0.0000  0.0000
13518SI     SI113518   7.917   0.750   1.047  0.0000  0.0000  0.0000
13519SI     SI113519   1.099   9.081   8.991  0.0000  0.0000  0.0000
13520SI     SI113520   0.144   9.031   1.259  0.0000  0.0000  0.0000
13521SI     SI113521   1.308   0.490   1.254  0.0000  0.0000  0.0000
13522SI     SI113522   4.477   9.550   8.843  0.0000  0.0000  0.0000
13523SI     SI113523   8.851   3.816   9.427  0.0000  0.0000  0.0000
13524SI     SI113524   5.436   0.557   0.357  0.0000  0.0000  0.0000
13525SI     SI113525   4.736   4.778   1.014  0.0000  0.0000  0.0000
13526SI     SI113526   4.271   7.348   0.111  0.0000  0.0000  0.0000
13527SI     SI113527   0.452   1.949   8.957  0.0000  0.0000  0.0000
13528SI     SI113528   0.710   4.633   9.110  0.0000  0.0000  0.0000
13529SI     SI113529   5.440   2.526   8.351  0.0000  0.0000  0.0000
13530SI     SI113530   5.428   7.935   0.641  0.0000  0.0000  0.0000
13531SI     SI113531   6.258   7.667   0.655  0.0000  0.0000  0.0000
13532SI     SI113532   1.283   7.750   0.713  0.0000  0.0000  0.0000
13533SI     SI113533   3.315   9.034   0.890  0.0000  0.0000  0.0000
13534SI     SI113534   0.300   4.466   0.578  0.0000  0.0000  0.0000
13535SI     SI113535   5.651   1.572   8.981  0.0000  0.0000  0.0000
13536SI     SI113536   0.254   7.003   0.694  0.0000  0.0000  0.0000
13537SI     SI113537   1.497   3.476   9.189  0.0000  0.0000  0.0000
13538SI     SI113538   7.670   4.693   9.250  0.0000  0.0000  0.0000
13539SI     SI113539   1.088   9.492   9.597  0.0000  0.0000  0.0000
13540SI     SI113540   5.604   1.902   0.149  0.0000  0.0000  0.0000
13541SI     SI113541   3.966   1.203   8.828  0.0000  0.0000  0.0000
13542SI     SI113542   7.130   7.640   8.699  0.0000  0.0000  0.0000
13543SI     SI113543   3.178   2.229   9.068  0.0000  0.0000  0.0000
13544SI     SI113544   4.730   3.438   8.407  0.0000  0.0000  0.0000
13545SI     SI113545   8.288   6.717   0.728  0.0000  0.0000  0.0000
13546SI     SI113546   0.179   9.103   0.964  0.0000  0.0000  0.0000
13547SI     SI113547   4.638   1.538   9.147  0.0000  0.0000  0.0000
13548SI     SI113548   2.820   7.944   0.386  0.0000  0.0000  0.0000
13549SI     SI113549   1.522   7.272   9.306  0.0000  0.0000  0.0000
13550SI     SI113550   4.318   7.979   0.360  0.0000  0.0000  0.0000
13551SI     SI113551   1.468   8.726   1.227  0.0000  0.0000  0.0000
13552SI     SI113552   0.249   5.507   0.434  0.0000  0.0000  0.0000
13553SI     SI113553   5.151   2.448   8.989  0.0000  0.0000  0.0000
13554SI     SI113554   2.572   3.089   0.063  0.0000  0.0000  0.0000
13555SI     SI113555   0.789   9.484   0.611  0.0000  0.0000  0.0000
13556SI     SI113556   8.968   5.872   8.390  0.0000  0.0000  0.0000
13557SI     SI113557   3.255   4.274   8.638  0.0000  0.0000  0.0000
13558SI     SI113558   0.890   8.216   0.268  0.0000  0.0000  0.0000
13559SI     SI113559   6.611   5.311   0.496  0.0000  0.0000  0.0000
13560SI     SI113560   6.262   8.220   0.680  0.0000  0.0000  0.0000
13561SI     SI113561   2.570   5.180   9.096  0.0000  0.0000  0.0000
13562SI     SI113562   2.170   3.023   9.286  0.0000  0.0000  0.0000
13563SI     SI113563   1.553   8.632   9.193  0.0000  0.0000  0.0000
13564SI     SI113564   8.182   7.116   0.361  0.0000  0.0000  0.0000
13565SI     SI113565   1.000   3.156   8.712  0.0000  0.0000  0.0000
13566SI     SI113566   0.987   5.446   8.859  0.0000  0.0000  0.0000
13567SI     SI113567   5.653   2.019   0.420  0.0000  0.0000  0.0000
13568SI     SI113568   7.570   3.717   9.300  0.0000  0.0000  0.0000
13569SI     SI113569   5.387   8.263   9.443  0.0000  0.0000  0.0000
13570SI     SI113570   2.869   0.346   1.146  0.0000  0.0000  0.0000
13571SI     SI113571   1.100   0.518   9.441  0.0000  0.0000  0.0000
13572SI     SI113572   8.248   3.202   0.711  0.0000  0.0000  0.0000
13573SI     SI113573   6.963   8.104   8.957  0.0000  0.0000  0.0000
13574SI     SI113574   8.461   3.759   8.637  0.0000  0.0000  0.0000
13575SI     SI113575   3.593   6.809   0.545  0.0000  0.0000  0.0000
13576SI     SI113576   7.275   5.514   9.525  0.0000  0.0000  0.0000
13577SI     SI113577   3.176   5.783   9.288  0.0000  0.0000  0.0000
13578SI     SI113578   3.089   0.063   0.718  0.0000  0.0000  0.0000
13579SI     SI113579   1.153   6.745   8.424  0.0000  0.0000  0.0000
13580SI     SI113580   2.905   4.661   8.709  0.0000  0.0000  0.0000
13581SI     SI113581   5.752   7.417   1.110  0.0000  0.0000  0.0000
13582SI     SI113582   8.511   6.333   0.603  0.0000  0.0000  0.0000
13583SI     SI113583   5.581   4.815   0.053  0.0000  0.0000  0.0000
13584SI     SI113584   5.151   2.552   8.409  0.0000  0.0000  0.0000
13585SI     SI113585   5.351   8.672   1.005  0.0000  0.0000  0.0000
13586SI     SI113586   0.500   6.324   9.419  0.0000  0.0000  0.0000
13587SI     SI113587   1.745   3.617   8.693  0.0000  0.0000  0.0000
13588SI     SI113588   3.170   2.579   8.695  0.0000  0.0000  0.0000
13589SI     SI113589   3.359   8.046   8.450  0.0000  0.0000  0.0000
13590SI     SI113590   8.822   9.460   9.094  0.0000  0.0000  0.0000
13591SI     SI113591   3.092   2.092   0.822  0.0000  0.0000  0.0000
13592SI     SI113592   4.950   3.988   1.152  0.0000  0.0000  0.0000
13593SI     SI113593   0.092   1.221   8.603  0.0000  0.0000  0.0000
13594SI     SI113594   5.535   0.984   0.632  0.0000  0.0000  0.0000
13595SI     SI113595   6.537   2.297   8.787  0.0000  0.0000  0.0000
13596SI     SI113596   0.483   0.234   9.360  0.0000  0.0000  0.0000
13597SI     SI113597   5.945   8.967   0.677  0.0000  0.0000  0.0000
13598SI     SI113598   1.429   0.991   9.051  0.0000  0.0000  0.0000
13599SI     SI113599   2.165   6.871   1.427  0.0000  0.0000  0.0000
13600SI     SI113600   7.852   5.446   9.134  0.0000  0.0000  0.0000
13601SI     SI113601   0.992   0.652   8.620  0.0000  0.0000  0.0000
13602SI     SI113602   8.225   8.017   0.425  0.0000  0.0000  0.0000
13603SI     SI113603   0.486   4.084   0.074  0.0000  0.0000  0.0000
13604SI     SI113604   1.043   5.821   0.645  0.0000  0.0000  0.0000
13605SI     SI113605   4.496   4.441   0.436  0.0000  0.0000  0.0000
13606SI     SI113606   2.929   1.916   8.392  0.0000  0.0000  0.0000
13607SI     SI113607   2.075   6.511   8.756  0.0000  0.0000  0.0000
13608SI     SI113608   9.297   0.738   8.498  0.0000  0.0000  0.0000
13609SI     SI113609   3.219   8.671   1.187  0.0000  0.0000  0.0000
13610SI     SI113610   1.249   6.468   0.869  0.0000  0.0000  0.0000
13611SI     SI113611   6.783   4.983   1.071  0.0000  0.0000  0.0000
13612SI     SI113612   3.232   0.146   0.017  0.0000  0.0000  0.0000
13613SI     SI113613   6.046   2.686   9.371  0.0000  0.0000  0.0000
13614SI     SI113614   0.064   7.608   8.906  0.0000  0.0000  0.0000
13615SI     SI113615   6.283   7.458   8.542  0.0000  0.0000  0.0000
13616SI     SI113616   6.319   3.145   0.758  0.0000  0.0000  0.0000
13617SI     SI113617   8.246   4.901   0.927  0.0000  0.0000  0.0000
13618SI     SI113618   8.472   6.236   0.880  0.0000  0.0000  0.0000
13619SI     SI113619   3.174   9.270   0.221  0.0000  0.0000  0.0000
13620SI     SI113620   4.580   6.406   9.224  0.0000  0.0000  0.0000
13621SI     SI113621   7.124   0.702   8.663  0.0000  0.0000  0.0000
13622SI     SI113622   6.146   6.075   0.003  0.0000  0.0000  0.0000
13623SI     SI113623   6.695   8.246   8.288  0.0000  0.0000  0.0000
13624SI     SI113624   8.618   5.372   9.521  0.0000  0.0000  0.0000
13625SI     SI113625   5.805   8.556   1.088  0.0000  0.0000  0.0000
13626SI     SI113626   9.504   2.721   0.369  0.0000  0.0000  0.0000
13627SI     SI113627   3.324   8.194   9.189  0.0000  0.0000  0.0000
13628SI     SI113628   8.339   4.759   0.150  0.0000  0.0000  0.0000
13629SI     SI113629   6.857   4.729   0.891  0.0000  0.0000  0.0000
13630SI     SI113630   5.537   3.289   9.392  0.0000  0.0000  0.0000
13631SI     SI113631   7.137   9.228   8.976  0.0000  0.0000  0.0000
13632SI     SI113632   2.683   2.993   0.999  0.0000  0.0000  0.0000
13633SI     SI113633   9.479   6.961   0.964  0.0000  0.0000  0.0000
13634SI     SI113634   9.260   3.677   8.578  0.0000  0.0000  0.0000
13635SI     SI113635   3.806   6.386   0.569  0.0000  0.0000  0.0000
13636SI     SI113636   8.228   5.099   8.455  0.0000  0.0000  0.0000
13637SI     SI113637   1.360   6.609   9.522  0.0000  0.0000  0.0000
13638SI     SI113638   6.249   8.711   8.870  0.0000  0.0000  0.0000
13639SI     SI113639   0.760   5.789   0.611  0.0000  0.0000  0.0000
13640SI     SI113640   1.015   5.004   0.425  0.0000  0.0000  0.0000
13641SI     SI113641   9.511   7.798   0.213  0.0000  0.0000  0.0000
13642SI     SI113642   7.590   3.678   9.596  0.0000  0.0000  0.0000
13643SI     SI113643   1.666   7.463   0.853  0.0000  0.0000  0.0000
13644SI     SI113644   5.950   9.389   9.308  0.0000  0.0000  0.0000
13645SI     SI113645   1.605   4.670   0.699  0.0000  0.0000  0.0000
13646SI     SI113646   1.897   1.702   1.040  0.0000  0.0000  0.0000
13647SI     SI113647   7.095   0.024   0.731  0.0000  0.0000  0.0000
13648SI     SI113648   8.842   1.486   9.232  0.0000  0.0000  0.0000
13649SI     SI113649   4.282   3.118   0.647  0.0000  0.0000  0.0000
13650SI     SI113650   1.878   9.130   8.529  0.0000  0.0000  0.0000
13651SI     SI113651   2.517   8.610   8.735  0.0000  0.0000  0.0000
13652SI     SI113652   2.597   1.520   9.097  0.0000  0.0000  0.0000
13653SI     SI113653   0.296   5.885   0.664  0.0000  0.0000  0.0000
13654SI     SI113654   5.505   8.221   8.756  0.0000  0.0000  0.0000
13655SI     SI113655   4.623   1.712   9.391  0.0000  0.0000  0.0000
13656SI     SI113656   8.200   5.223   9.594  0.0000  0.0000  0.0000
13657SI     SI113657   7.740   7.149   8.768  0.0000  0.0000  0.0000
13658SI     SI113658   5.073   6.619   8.506  0.0000  0.0000  0.0000
13659SI     SI113659   2.616   2.892   0.536  0.0000  0.0000  0.0000
13660SI     SI113660   7.337   6.787   0.418  0.0000  0.0000  0.0000
13661SI     SI113661   4.254   3.392   8.636  0.0000  0.0000  0.0000
13662SI     SI113662   9.277   6.762   8.966  0.0000  0.0000  0.0000
13663SI     SI113663   3.157   0.291   8.919  0.0000  0.0000  0.0000
13664SI     SI113664   7.378   6.647   0.682  0.0000  0.0000  0.0000
13665SI     SI113665   1.684   4.352   1.036  0.0000  0.0000  0.0000
13666SI     SI113666   3.176   3.288   1.145  0.0000  0.0000  0.0000
13667SI     SI113667   3.453   7.157   8.793  0.0000  0.0000  0.0000
13668SI     SI113668   9.437   5.425   0.344  0.0000  0.0000  0.0000
13669SI     SI113669   3.460   3.285   8.828  0.0000  0.0000  0.0000
13670SI     SI113670   7.696   0.360   0.629  0.0000  0.0000  0.0000
13671SI     SI113671   2.802   0.979   8.257  0.0000  0.0000  0.0000
13672SI     SI113672   4.840   2.469   9.032  0.0000  0.0000  0.0000
13673SI     SI113673   2.572   4.317   8.718  0.0000  0.0000  0.0000
13674SI     SI113674   7.639   7.269   1.078  0.0000  0.0000  0.0000
13675SI     SI113675   5.586   1.883   0.689  0.0000  0.0000  0.0000
13676SI     SI113676   2.171   0.938   9.444  0.0000  0.0000  0.0000
13677SI     SI113677   7.700   4.801   8.832  0.0000  0.0000  0.0000
13678SI     SI113678   8.159   3.581   0.055  0.0000  0.0000  0.0000
13679SI     SI113679   5.512   2.782   0.523  0.0000  0.0000  0.0000
13680SI     SI113680   7.922   2.146   9.602  0.0000  0.0000  0.0000
13681SI     SI113681   7.080   3.388   0.498  0.0000  0.0000  0.0000
13682SI     SI113682   0.486   4.051   8.846  0.0000  0.0000  0.0000
13683SI     SI113683   1.385   1.244   8.620  0.0000  0.0000  0.0000
13684SI     SI113684   8.173   0.795   8.854  0.0000  0.0000  0.0000
13685SI     SI113685   7.136   9.265   9.466  0.0000  0.0000  0.0000
13686SI     SI113686   5.278   1.836   8.788  0.0000  0.0000  0.0000
13687SI     SI113687   0.499   1.082   8.906  0.0000  0.0000  0.0000
13688SI     SI113688   3.408   5.637   0.810  0.0000  0.0000  0.0000
13689SI     SI113689   3.900   3.743   8.764  0.0000  0.0000  0.0000
13690SI     SI113690   9.558   2.333   9.407  0.0000  0.0000  0.0000
13691SI     SI113691   9.314   5.485   9.201  0.0000  0.0000  0.0000
13692SI     SI113692   2.971   6.948   8.688  0.0000  0.0000  0.0000
13693SI     SI113693   3.247   6.601   0.679  0.0000  0.0000  0.0000
13694SI     SI113694   2.277   0.044   9.590  0.0000  0.0000  0.0000
13695SI     SI113695   0.292   5.182   8.809  0.0000  0.0000  0.0000
13696SI     SI113696   6.497   2.883   0.471  0.0000  0.0000  0.0000
13697SI     SI113697   2.622   4.676   0.708  0.0000  0.0000  0.0000
13698SI     SI113698   6.469   8.347   9.168  0.0000  0.0000  0.0000
13699SI     SI113699   7.933   6.469   9.090  0.0000  0.0000  0.0000
13700SI     SI113700   8.054   3.118   0.250  0.0000  0.0000  0.0000
13701SI     SI113701   0.659   4.245   0.262  0.0000  0.0000  0.0000
13702SI     SI113702   5.065   3.866   0.413  0.0000  0.0000  0.0000
13703SI     SI113703   9.288   0.580   8.756  0.0000  0.0000  0.0000
13704SI     SI113704   6.213   8.301   1.107  0.0000  0.0000  0.0000
13705SI     SI113705   0.385   3.365   0.976  0.0000  0.0000  0.0000
13706SI     SI113706   6.229   3.782   0.553  0.0000  0.0000  0.0000
13707SI     SI113707   3.799   3.820   9.247  0.0000  0.0000  0.0000
13708SI     SI113708   9.361   0.004   8.825  0.0000  0.0000  0.0000
13709SI     SI113709   6.740   2.492   9.529  0.0000  0.0000  0.0000
13710SI     SI113710   8.559   1.040   0.952  0.0000  0.0000  0.0000
13711SI     SI113711   4.314   1.092   1.102  0.0000  0.0000  0.0000
13712SI     SI113712   9.432   9.275   0.311  0.0000  0.0000  0.0000
13713SI     SI113713   9.151   7.499   1.282  0.0000  0.0000  0.0000
13714SI     SI113714   6.378   1.451   0.316  0.0000  0.0000  0.0000
13715SI     SI113715   6.775   0.892   0.384  0.0000  0.0000  0.0000
13716SI     SI113716   3.520   2.169   8.709  0.0000  0.0000  0.0000
13717SI     SI113717   4.400   5.286   9.210  0.0000  0.0000  0.0000
13718SI     SI113718   3.607   1.473   0.392  0.0000  0.0000  0.0000
13719SI     SI113719   5.855   8.971   9.094  0.0000  0.0000  0.0000
13720SI     SI113720   2.363   2.638   9.502  0.0000  0.0000  0.0000
13721SI     SI113721   4.447   1.886   0.332  0.0000  0.0000  0.0000
13722SI     SI113722   9.325   5.603   0.829  0.0000  0.0000  0.0000
13723SI     SI113723   5.137   7.110   0.838  0.0000  0.0000  0.0000
13724SI     SI113724   7.566   9.356   0.441  0.0000  0.0000  0.0000
13725SI     SI113725   8.637   1.717   0.113  0.0000  0.0000  0.0000
13726SI     SI113726   1.051   8.762   0.967  0.0000  0.0000  0.0000
13727SI     SI113727   8.994   0.252   8.856  0.0000  0.0000  0.0000
13728SI     SI113728   5.367   2.439   9.176  0.0000  0.0000  0.0000
13729SI     SI113729   3.916   0.724   1.183  0.0000  0.0000  0.0000
13730SI     SI113730   9.213   6.822   0.595  0.0000  0.0000  0.0000
13731SI     SI113731   8.019   6.111   0.696  0.0000  0.0000  0.0000
13732SI     SI113732   2.375   8.990   0.579  0.0000  0.0000  0.0000
13733SI     SI113733   7.828   4.441   9.227  0.0000  0.0000  0.0000
13734SI     SI113734   1.067   8.440   1.260  0.0000  0.0000  0.0000
13735SI     SI113735   7.488   4.173   0.953  0.0000  0.0000  0.0000
13736SI     SI113736   9.061   0.903   8.544  0.0000  0.0000  0.0000
13737SI     SI113737   2.764   2.579   0.235  0.0000  0.0000  0.0000
13738SI     SI113738   8.709   9.199   9.120  0.0000  0.0000  0.0000
13739SI     SI113739   8.987   4.998   9.570  0.0000  0.0000  0.0000
13740SI     SI113740   1.601   5.519   0.598  0.0000  0.0000  0.0000
13741SI     SI113741   5.134   6.188   0.358  0.0000  0.0000  0.0000
13742SI     SI113742   5.504   8.011   9.111  0.0000  0.0000  0.0000
13743SI     SI113743   8.954   3.039   1.279  0.0000  0.0000  0.0000
13744SI     SI113744   0.045   5.111   0.703  0.0000  0.0000  0.0000
13745SI     SI113745   7.801   4.556   0.517  0.0000  0.0000  0.0000
13746SI     SI113746   6.496   4.826   0.689  0.0000  0.0000  0.0000
13747SI     SI113747   8.297   4.640   8.412  0.0000  0.0000  0.0000
13748SI     SI113748   2.500   0.570   9.214  0.0000  0.0000  0.0000
13749SI     SI113749   0.169   1.483   8.929  0.0000  0.0000  0.0000
13750SI     SI113750   2.306   8.114   8.911  0.0000  0.0000  0.0000
13751SI     SI113751   5.238   3.279   0.115  0.0000  0.0000  0.0000
13752SI     SI113752   2.111   3.940   9.292  0.0000  0.0000  0.0000
13753SI     SI113753   0.190   7.839   0.109  0.0000  0.0000  0.0000
13754SI     SI113754   4.614   2.007   9.309  0.0000  0.0000  0.0000
13755SI     SI113755   0.365   2.615   0.260  0.0000  0.0000  0.0000
13756SI     SI113756   7.945   0.221   0.170  0.0000  0.0000  0.0000
13757SI     SI113757   2.131   3.186   9.018  0.0000  0.0000  0.0000
13758SI     SI113758   5.604   3.059   0.650  0.0000  0.0000  0.0000
13759SI     SI113759   4.343   5.568   1.125  0.0000  0.0000  0.0000
13760SI     SI113760   6.303   6.948   9.314  0.0000  0.0000  0.0000
13761SI     SI113761   4.315   5.730   9.049  0.0000  0.0000  0.0000
13762SI     SI113762   4.126   0.735   0.143  0.0000  0.0000  0.0000
13763SI     SI113763   6.525   9.576   8.278  0.0000  0.0000  0.0000
13764SI     SI113764   0.110   1.059   0.943  0.0000  0.0000  0.0000
13765SI     SI113765   0.113   1.347   0.863  0.0000  0.0000  0.0000
13766SI     SI113766   0.181   3.970   8.626  0.0000  0.0000  0.0000
13767SI     SI113767   6.701   7.153   0.178  0.0000  0.0000  0.0000
13768SI     SI113768   3.893   7.837   0.864  0.0000  0.0000  0.0000
13769SI     SI113769   1.720   6.426   0.661  0.0000  0.0000  0.0000
13770SI     SI113770   5.065   7.641   8.444  0.0000  0.0000  0.0000
13771SI     SI113771   0.589   9.229   1.138  0.0000  0.0000  0.0000
13772SI     SI113772   2.168   0.715   0.678  0.0000  0.0000  0.0000
13773SI     SI113773   3.614   2.922   1.143  0.0000  0.0000  0.0000
13774SI     SI113774   3.141   7.726   9.065  0.0000  0.0000  0.0000
13775SI     SI113775   4.740   4.643   9.319  0.0000  0.0000  0.0000
13776SI     SI113776   8.563   6.136   8.591  0.0000  0.0000  0.0000
13777SI     SI113777   9.415   7.873   0.939  0.0000  0.0000  0.0000
13778SI     SI113778   3.606   1.830   0.878  0.0000  0.0000  0.0000
13779SI     SI113779   3.630   5.778   0.164  0.0000  0.0000  0.0000
13780SI     SI113780   2.134   2.118   8.988  0.0000  0.0000  0.0000
13781SI     SI113781   4.556   3.792   0.272  0.0000  0.0000  0.0000
13782SI     SI113782   5.539   1.048   9.193  0.0000  0.0000  0.0000
13783SI     SI113783   5.555   6.813   8.810  0.0000  0.0000  0.0000
13784SI     SI113784   1.823   6.685   1.108  0.0000  0.0000  0.0000
13785SI     SI113785   8.681   8.382   0.647  0.0000  0.0000  0.0000
13786SI     SI113786   3.067   0.720   0.641  0.0000  0.0000  0.0000
13787SI     SI113787   8.579   4.154   9.393  0.0000  0.0000  0.0000
13788SI     SI113788   9.522   0.592   9.206  0.0000  0.0000  0.0000
13789SI     SI113789   0.570   7.466   8.403  0.0000  0.0000  0.0000
13790SI     SI113790   7.942   9.151   0.214  0.0000  0.0000  0.0000
13791SI     SI113791   2.163   8.520   8.447  0.0000  0.0000  0.0000
13792SI     SI113792   7.893   2.853   0.634  0.0000  0.0000  0.0000
13793SI     SI113793   4.159   7.928   0.870  0.0000  0.0000  0.0000
13794SI     SI113794   5.368   4.120   0.535  0.0000  0.0000  0.0000
13795SI     SI113795   3.046   0.273   0.504  0.0000  0.0000  0.0000
13796SI     SI113796   9.510   3.535   8.712  0.0000  0.0000  0.0000
13797SI     SI113797   6.174   1.559   9.270  0.0000  0.0000  0.0000
13798SI     SI113798   1.650   7.465   8.806  0.0000  0.0000  0.0000
13799SI     SI113799   2.717   6.175   0.797  0.0000  0.0000  0.0000
13800SI     SI113800   0.142   6.717   0.064  0.0000  0.0000  0.0000
13801SI     SI113801   6.876   4.737   8.437  0.0000  0.0000  0.0000
13802SI     SI113802   4.894   2.054   0.681  0.0000  0.0000  0.0000
13803SI     SI113803   5.853   6.837   8.858  0.0000  0.0000  0.0000
13804SI     SI113804   2.370   0.323   8.688  0.0000  0.0000  0.0000
13805SI     SI113805   8.304   6.018   0.717  0.0000  0.0000  0.0000
13806SI     SI113806   7.425   2.779   0.623  0.0000  0.0000  0.0000
13807SI     SI113807   6.778   2.744   8.743  0.0000  0.0000  0.0000
13808SI     SI113808   8.496   7.751   9.096  0.0000  0.0000  0.0000
13809SI     SI113809   3.740   0.680   8.908  0.0000  0.0000  0.0000
13810SI     SI113810   8.242   8.407   9.012  0.0000  0.0000  0.0000
13811SI     SI113811   4.706   1.153   8.637  0.0000  0.0000  0.0000
13812SI     SI113812   6.181   7.819   9.505  0.0000  0.0000  0.0000
13813SI     SI113813   5.171   6.217   1.136  0.0000  0.0000  0.0000
13814SI     SI113814   5.745   4.733   0.589  0.0000  0.0000  0.0000
13815SI     SI113815   8.281   6.185   9.309  0.0000  0.0000  0.0000
13816SI     SI113816   4.212   4.715   9.498  0.0000  0.0000  0.0000
13817SI     SI113817   4.761   5.987   0.649  0.0000  0.0000  0.0000
13818SI     SI113818   1.640   7.206   0.465  0.0000  0.0000  0.0000
13819SI     SI113819   8.544   4.313   8.677  0.0000  0.0000  0.0000
13820SI     SI113820   8.231   4.334   9.100  0.0000  0.0000  0.0000
13821SI     SI113821   8.380   1.734   9.409  0.0000  0.0000  0.0000
13822SI     SI113822   6.114   4.816   8.983  0.0000  0.0000  0.0000
13823SI     SI113823   3.117   7.437   9.187  0.0000  0.0000  0.0000
13824SI     SI113824   2.459   5.522   1.264  0.0000  0.0000  0.0000
13825SI     SI113825   1.495   1.251   1.111  0.0000  0.0000  0.0000
13826SI     SI113826   3.310   1.253   9.323  0.0000  0.0000  0.0000
13827SI     SI113827   6.283   3.115   9.466  0.0000  0.0000  0.0000
13828SI     SI113828   1.828   8.559   9.502  0.0000  0.0000  0.0000
13829SI     SI113829   9.215   6.277   1.059  0.0000  0.0000  0.0000
13830SI     SI113830   1.798   0.782   0.442  0.0000  0.0000  0.0000
13831SI     SI113831   5.771   7.640   9.315  0.0000  0.0000  0.0000
13832SI     SI113832   4.821   8.042   0.436  0.0000  0.0000  0.0000
13833SI     SI113833   2.509   3.329   0.771  0.0000  0.0000  0.0000
13834SI     SI113834   5.335   8.144   0.989  0.0000  0.0000  0.0000
13835SI     SI113835   5.311   9.243   9.293  0.0000  0.0000  0.0000
13836SI     SI113836   4.109   7.909   9.006  0.0000  0.0000  0.0000
13837SI     SI113837   0.431   1.459   8.747  0.0000  0.0000  0.0000
13838SI     SI113838   7.351   1.647   0.895  0.0000  0.0000  0.0000
13839SI     SI113839   8.229   4.794   0.669  0.0000  0.0000  0.0000
13840SI     SI113840   6.532   1.976   9.049  0.0000  0.0000  0.0000
13841SI     SI113841   9.582   3.020   0.726  0.0000  0.0000  0.0000
13842SI     SI113842   3.529   8.405   0.883  0.0000  0.0000  0.0000
13843SI     SI113843   6.761   4.961   0.237  0.0000  0.0000  0.0000
13844SI     SI113844   3.894   3.481   0.948  0.0000  0.0000  0.0000
13845SI     SI113845   2.615   4.047   0.941  0.0000  0.0000  0.0000
13846SI     SI113846   6.866   2.822   9.199  0.0000  0.0000  0.0000
13847SI     SI113847   8.596   4.560   9.132  0.0000  0.0000  0.0000
13848SI     SI113848   4.183   2.492   0.392  0.0000  0.0000  0.0000
13849SI     SI113849   1.306   4.974   0.323  0.0000  0.0000  0.0000
13850SI     SI113850   7.491   5.650   0.089  0.0000  0.0000  0.0000
13851SI     SI113851   9.589   2.110   0.557  0.0000  0.0000  0.0000
13852SI     SI113852   3.606   5.571   9.020  0.0000  0.0000  0.0000
13853SI     SI113853   2.344   5.809   0.881  0.0000  0.0000  0.0000
13854SI     SI113854   5.967   1.330   9.219  0.0000  0.0000  0.0000
13855SI     SI113855   8.182   5.907   8.607  0.0000  0.0000  0.0000
13856SI     SI113856   5.557   4.770   8.654  0.0000  0.0000  0.0000
13857SI     SI113857   1.743   2.198   0.352  0.0000  0.0000  0.0000
13858SI     SI113858   9.167   2.384   8.546  0.0000  0.0000  0.0000
13859SI     SI113859   5.541   7.712   8.841  0.0000  0.0000  0.0000
13860SI     SI113860   5.469   8.997   0.661  0.0000  0.0000  0.0000
13861SI     SI113861   0.943   1.988   0.194  0.0000  0.0000  0.0000
13862SI     SI113862   0.236   6.555   0.971  0.0000  0.0000  0.0000
13863SI     SI113863   3.902   0.860   0.299  0.0000  0.0000  0.0000
13864SI     SI113864   4.789   6.748   9.199  0.0000  0.0000  0.0000
13865SI     SI113865   2.997   3.554   9.205  0.0000  0.0000  0.0000
13866SI     SI113866   0.003   6.434   0.078  0.0000  0.0000  0.0000
13867SI     SI113867   8.312   7.521   9.001  0.0000  0.0000  0.0000
13868SI     SI113868   5.711   7.579   0.692  0.0000  0.0000  0.0000
13869SI     SI113869   0.925   0.816   0.848  0.0000  0.0000  0.0000
13870SI     SI113870   2.330   1.875   9.042  0.0000  0.0000  0.0000
13871SI     SI113871   8.799   9.477   8.787  0.0000  0.0000  0.0000
13872SI     SI113872   5.344   6.785   8.447  0.0000  0.0000  0.0000
13873SI     SI113873   7.320   6.406   8.489  0.0000  0.0000  0.0000
13874SI     SI113874   0.140   0.191   0.056  0.0000  0.0000  0.0000
13875SI     SI113875   7.300   8.528   9.504  0.0000  0.0000  0.0000
13876SI     SI113876   3.859   6.683   0.470  0.0000  0.0000  0.0000
13877SI     SI113877   5.835   8.390   0.822  0.0000  0.0000  0.0000
13878SI     SI113878   7.744   0.491   8.658  0.0000  0.0000  0.0000
13879SI     SI113879   0.905   3.674   0.350  0.0000  0.0000  0.0000
13880SI     SI113880   6.064   5.963   0.997  0.0000  0.0000  0.0000
13881SI     SI113881   9.140   4.967   0.672  0.0000  0.0000  0.0000
13882SI     SI113882   0.287   6.829   8.636  0.0000  0.0000  0.0000
13883SI     SI113883   0.635   0.836   9.264  0.0000  0.0000  0.0000
13884SI     SI113884   8.492   4.142   0.804  0.0000  0.0000  0.0000
13885SI     SI113885   5.980   3.802   0.387  0.0000  0.0000  0.0000
13886SI     SI113886   1.882   1.206   9.086  0.0000  0.0000  0.0000
13887SI     SI113887   0.367   3.416   9.491  0.0000  0.0000  0.0000
13888SI     SI113888   1.734   8.884   9.233  0.0000  0.0000  0.0000
13889SI     SI113889   9.323   4.856   0.438  0.0000  0.0000  0.0000
13890SI     SI113890   1.948   4.551   8.962  0.0000  0.0000  0.0000
13891SI     SI113891   5.086   3.157   1.176  0.0000  0.0000  0.0000
13892SI     SI113892   1.303   7.989   0.316  0.0000  0.0000  0.0000
13893SI     SI113893   1.134   4.548   0.334  0.0000  0.0000  0.0000
13894SI     SI113894   6.822   8.490   8.415  0.0000  0.0000  0.0000
13895SI     SI113895   9.580   8.081   8.597  0.0000  0.0000  0.0000
13896SI     SI113896   1.759   7.634   0.073  0.0000  0.0000  0.0000
13897SI     SI113897   2.009   1.589   0.242  0.0000  0.0000  0.0000
13898SI     SI113898   5.615   6.165   0.592  0.0000  0.0000  0.0000
13899SI     SI113899   1.465   3.924   9.509  0.0000  0.0000  0.0000
13900SI     SI113900   4.255   2.785   9.593  0.0000  0.0000  0.0000
13901SI     SI113901   5.880   3.748   8.470  0.0000  0.0000  0.0000
13902SI     SI113902   8.289   2.729   0.473  0.0000  0.0000  0.0000
13903SI     SI113903   5.918   1.422   8.924  0.0000  0.0000  0.0000
13904SI     SI113904   3.185   3.378   0.043  0.0000  0.0000  0.0000
13905SI     SI113905   5.617   6.418   0.195  0.0000  0.0000  0.0000
13906SI     SI113906   0.622   4.828   8.906  0.0000  0.0000  0.0000
13907SI     SI113907   5.681   5.476   0.116  0.0000  0.0000  0.0000
13908SI     SI113908   4.563   6.091   8.265  0.0000  0.0000  0.0000
13909SI     SI113909   0.861   6.177   0.943  0.0000  0.0000  0.0000
13910SI     SI113910   3.901   1.564   9.236  0.0000  0.0000  0.0000
13911SI     SI113911   6.566   4.313   9.472  0.0000  0.0000  0.0000
13912SI     SI113912   8.976   3.012   9.373  0.0000  0.0000  0.0000
13913SI     SI113913   8.329   3.795   9.505  0.0000  0.0000  0.0000
13914SI     SI113914   1.530   4.440   8.869  0.0000  0.0000  0.0000
13915SI     SI113915   5.317   7.160   9.159  0.0000  0.0000  0.0000
13916SI     SI113916   1.013   7.926   0.269  0.0000  0.0000  0.0000
13917SI     SI113917   2.236   6.612   0.470  0.0000  0.0000  0.0000
13918SI     SI113918   6.780   0.270   0.207  0.0000  0.0000  0.0000
13919SI     SI113919   3.535   0.087   9.559  0.0000  0.0000  0.0000
13920SI     SI113920   8.107   3.188   8.948  0.0000  0.0000  0.0000
13921SI     SI113921   4.198   4.090   9.018  0.0000  0.0000  0.0000
13922SI     SI113922   3.020   4.940   9.305  0.0000  0.0000  0.0000
13923SI     SI113923   3.364   8.664   8.455  0.0000  0.0000  0.0000
13924SI     SI113924   5.314   0.282   0.851  0.0000  0.0000  0.0000
13925SI     SI113925   5.911   4.541   8.418  0.0000  0.0000  0.0000
13926SI     SI113926   3.364   3.009   8.943  0.0000  0.0000  0.0000
13927SI     SI113927   7.239   8.454   8.896  0.0000  0.0000  0.0000
13928SI     SI113928   8.772   3.168   8.609  0.0000  0.0000  0.0000
13929SI     SI113929   7.749   1.499   9.136  0.0000  0.0000  0.0000
13930SI     SI113930   4.799   7.697   8.299  0.0000  0.0000  0.0000
13931SI     SI113931   0.111   2.669   8.808  0.0000  0.0000  0.0000
13932SI     SI113932   4.398   9.075   0.140  0.0000  0.0000  0.0000
13933SI     SI113933   3.069   9.114   1.073  0.0000  0.0000  0.0000
13934SI     SI113934   4.378   1.724   8.748  0.0000  0.0000  0.0000
13935SI     SI113935   8.813   8.306   1.144  0.0000  0.0000  0.0000
13936SI     SI113936   1.316   7.957   8.891  0.0000  0.0000  0.0000
13937SI     SI113937   8.212   9.091   9.214  0.0000  0.0000  0.0000
13938SI     SI113938   1.887   0.790   8.841  0.0000  0.0000  0.0000
13939SI     SI113939   9.598   7.917   9.239  0.0000  0.0000  0.0000
13940SI     SI113940   1.015   6.431   1.306  0.0000  0.0000  0.0000
13941SI     SI113941   8.774   3.302   1.237  0.0000  0.0000  0.0000
13942SI     SI113942   6.905   0.001   0.207  0.0000  0.0000  0.0000
13943SI     SI113943   6.114   6.665   0.679  0.0000  0.0000  0.0000
13944SI     SI113944   9.054   3.430   0.831  0.0000  0.0000  0.0000
13945SI     SI113945   0.551   7.137   0.298  0.0000  0.0000  0.0000
13946SI     SI113946   5.981   5.095   9.483  0.0000  0.0000  0.0000
13947SI     SI113947   1.607   2.786   8.219  0.0000  0.0000  0.0000
13948SI     SI113948   5.631   4.382   9.597  0.0000  0.0000  0.0000
13949SI     SI113949   2.693   1.902   0.773  0.0000  0.0000  0.0000
13950SI     SI113950   0.327   3.408   0.359  0.0000  0.0000  0.0000
13951SI     SI113951   7.770   5.518   0.082  0.0000  0.0000  0.0000
13952SI     SI113952   8.932   7.862   8.935  0.0000  0.0000  0.0000
13953SI     SI113953   2.737   3.177   9.416  0.0000  0.0000  0.0000
13954SI     SI113954   8.077   6.358   1.092  0.0000  0.0000  0.0000
13955SI     SI113955   0.220   4.004   0.517  0.0000  0.0000  0.0000
13956SI     SI113956   0.778   4.397   8.662  0.0000  0.0000  0.0000
13957SI     SI113957   6.453   2.549   9.410  0.0000  0.0000  0.0000
13958SI     SI113958   5.113   1.762   9.465  0.0000  0.0000  0.0000
13959SI     SI113959   5.854   2.828   8.349  0.0000  0.0000  0.0000
13960SI     SI113960   7.036   3.301   9.341  0.0000  0.0000  0.0000
13961SI     SI113961   1.534   6.273   1.159  0.0000  0.0000  0.0000
13962SI     SI113962   7.983   1.469   9.585  0.0000  0.0000  0.0000
13963SI     SI113963   8.521   2.906   1.094  0.0000  0.0000  0.0000
13964SI     SI113964   7.120   5.175   8.604  0.0000  0.0000  0.0000
13965SI     SI113965   1.702   9.314   0.497  0.0000  0.0000  0.0000
13966SI     SI113966   3.957   3.964   1.090  0.0000  0.0000  0.0000
13967SI     SI113967   4.769   5.481   9.484  0.0000  0.0000  0.0000
13968SI     SI113968   6.959   2.778   0.923  0.0000  0.0000  0.0000
13969SI     SI113969   0.768   8.666   0.090  0.0000  0.0000  0.0000
13970SI     SI113970   2.709   0.371   9.100  0.0000  0.0000  0.0000
13971SI     SI113971   2.817   4.264   0.840  0.0000  0.0000  0.0000
13972SI     SI113972   4.838   9.374   0.141  0.0000  0.0000  0.0000
13973SI     SI113973   8.112   3.856   9.298  0.0000  0.0000  0.0000
13974SI     SI113974   3.023   5.261   8.542  0.0000  0.0000  0.0000
13975SI     SI113975   2.583   7.791   1.235  0.0000  0.0000  0.0000
13976SI     SI113976   8.586   1.597   8.848  0.0000  0.0000  0.0000
13977SI     SI113977   9.172   3.682   0.429  0.0000  0.0000  0.0000
13978SI     SI113978   7.018   6.830   0.870  0.0000  0.0000  0.0000
13979SI     SI113979   9.025   9.272   9.352  0.0000  0.0000  0.0000
13980SI     SI113980   5.573   9.250   0.192  0.0000  0.0000  0.0000
13981SI     SI113981   5.918   5.598   0.485  0.0000  0.0000  0.0000
13982SI     SI113982   1.725   8.713   8.803  0.0000  0.0000  0.0000
13983SI     SI113983   7.219   8.801   9.594  0.0000  0.0000  0.0000
13984SI     SI113984   6.951   1.409   9.265  0.0000  0.0000  0.0000
13985SI     SI113985   5.250   2.253   0.955  0.0000  0.0000  0.0000
13986SI     SI113986   4.933   0.380   8.987  0.0000  0.0000  0.0000
13987SI     SI113987   2.542   6.450   1.108  0.0000  0.0000  0.0000
13988SI     SI113988   6.686   2.495   8.602  0.0000  0.0000  0.0000
13989SI     SI113989   7.968   3.990   1.146  0.0000  0.0000  0.0000
13990SI     SI113990   8.497   8.680   0.276  0.0000  0.0000  0.0000
13991SI     SI113991   7.459   8.088   1.273  0.0000  0.0000  0.0000
13992SI     SI113992   7.009   9.382   8.444  0.0000  0.0000  0.0000
13993SI     SI113993   6.455   7.264   1.024  0.0000  0.0000  0.0000
13994SI     SI113994   9.177   0.335   1.090  0.0000  0.0000  0.0000
13995SI     SI113995   8.410   3.120   9.264  0.0000  0.0000  0.0000
13996SI     SI113996   3.388   2.659   0.067  0.0000  0.0000  0.0000
13997SI     SI113997   1.363   7.631   9.455  0.0000  0.0000  0.0000
13998SI     SI113998   6.331   1.262   8.839  0.0000  0.0000  0.0000
13999SI     SI113999   7.360   1.356   0.970  0.0000  0.0000  0.0000
14000SI     SI114000   5.596   8.059   0.213  0.0000  0.0000  0.0000
14001SI     SI114001   9.569   9.426   8.452  0.0000  0.0000  0.0000
14002SI     SI114002   8.080   9.200   8.765  0.0000  0.0000  0.0000
14003SI     SI114003   6.070   7.672   8.965  0.0000  0.0000  0.0000
14004SI     SI114004   8.434   2.489   9.561  0.0000  0.0000  0.0000
14005SI     SI114005   6.761   2.367   0.920  0.0000  0.0000  0.0000
14006SI     SI114006   7.167   6.513   8.975  0.0000  0.0000  0.0000
14007SI     SI114007   6.639   3.549   8.603  0.0000  0.0000  0.0000
14008SI     SI114008   6.923   0.520   1.097  0.0000  0.0000  0.0000
14009SI     SI114009   0.909   0.433   0.240  0.0000  0.0000  0.0000
14010SI     SI114010   4.310   8.020   1.110  0.0000  0.0000  0.0000
14011SI     SI114011   7.696   6.664   9.569  0.0000  0.0000  0.0000
14012SI     SI114012   4.368   3.424   0.412  0.0000  0.0000  0.0000
14013SI     SI114013   9.518   8.337   1.144  0.0000  0.0000  0.0000
14014SI     SI114014   2.140   5.484   8.604  0.0000  0.0000  0.0000
14015SI     SI114015   1.151   6.989   8.610  0.0000  0.0000  0.0000
14016SI     SI114016   3.985   0.009   0.375  0.0000  0.0000  0.0000
14017SI     SI114017   8.659   8.914   0.146  0.0000  0.0000  0.0000
14018SI     SI114018   1.385   4.314   1.113  0.0000  0.0000  0.0000
14019SI     SI114019   5.337   9.413   8.503  0.0000  0.0000  0.0000
14020SI     SI114020   1.836   7.304   0.664  0.0000  0.0000  0.0000
14021SI     SI114021   2.766   3.062   0.312  0.0000  0.0000  0.0000
14022SI     SI114022   7.181   8.125   1.220  0.0000  0.0000  0.0000
14023SI     SI114023   1.400   8.993   0.733  0.0000  0.0000  0.0000
14024SI     SI114024   6.229   8.136   9.167  0.0000  0.0000  0.0000
14025SI     SI114025   1.321   3.859   0.170  0.0000  0.0000  0.0000
14026SI     SI114026   1.817   8.886   1.238  0.0000  0.0000  0.0000
14027SI     SI114027   5.913   7.653   0.263  0.0000  0.0000  0.0000
14028SI     SI114028   8.401   9.109   0.662  0.0000  0.0000  0.0000
14029SI     SI114029   5.825   2.265   9.134  0.0000  0.0000  0.0000
14030SI     SI114030   3.425   6.966   9.216  0.0000  0.0000  0.0000
14031SI     SI114031   5.293   6.860   9.228  0.0000  0.0000  0.0000
14032SI     SI114032   0.541   0.666   0.476  0.0000  0.0000  0.0000
14033SI     SI114033   2.623   9.572   0.936  0.0000  0.0000  0.0000
14034SI     SI114034   3.944   1.063   9.472  0.0000  0.0000  0.0000
14035SI     SI114035   9.245   4.400   9.256  0.0000  0.0000  0.0000
14036SI     SI114036   7.811   8.004   0.689  0.0000  0.0000  0.0000
14037SI     SI114037   1.878   7.697   0.835  0.0000  0.0000  0.0000
14038SI     SI114038   4.627   4.691   8.703  0.0000  0.0000  0.0000
14039SI     SI114039   5.533   2.292   0.406  0.0000  0.0000  0.0000
14040SI     SI114040   3.554   3.184   8.541  0.0000  0.0000  0.0000
14041SI     SI114041   6.612   1.665   0.332  0.0000  0.0000  0.0000
14042SI     SI114042   0.914   2.064   9.085  0.0000  0.0000  0.0000
14043SI     SI114043   7.401   0.225   1.006  0.0000  0.0000  0.0000
14044SI     SI114044   5.445   9.468   0.972  0.0000  0.0000  0.0000
14045SI     SI114045   1.410   6.245   9.160  0.0000  0.0000  0.0000
14046SI     SI114046   6.402   7.871   0.232  0.0000  0.0000  0.0000
14047SI     SI114047   4.026   8.424   1.035  0.0000  0.0000  0.0000
14048SI     SI114048   7.138   0.578   8.385  0.0000  0.0000  0.0000
14049SI     SI114049   0.507   3.796   0.132  0.0000  0.0000  0.0000
14050SI     SI114050   7.321   7.295   1.085  0.0000  0.0000  0.0000
14051SI     SI114051   4.347   7.351   9.413  0.0000  0.0000  0.0000
14052SI     SI114052   3.384   0.908   8.557  0.0000  0.0000  0.0000
14053SI     SI114053   0.644   7.300   0.546  0.0000  0.0000  0.0000
14054SI     SI114054   8.747   5.928   0.740  0.0000  0.0000  0.0000
14055SI     SI114055   9.121   7.007   1.236  0.0000  0.0000  0.0000
14056SI     SI114056   2.604   8.381   9.256  0.0000  0.0000  0.0000
14057SI     SI114057   1.183   8.518   0.282  0.0000  0.0000  0.0000
14058SI     SI114058   9.322   1.671   9.331  0.0000  0.0000  0.0000
14059SI     SI114059   1.914   2.654   1.155  0.0000  0.0000  0.0000
14060SI     SI114060   5.651   7.577   0.390  0.0000  0.0000  0.0000
14061SI     SI114061   0.413   3.113   8.955  0.0000  0.0000  0.0000
14062SI     SI114062   6.138   1.601   8.784  0.0000  0.0000  0.0000
14063SI     SI114063   6.314   0.876   0.567  0.0000  0.0000  0.0000
14064SI     SI114064   6.875   1.375   9.552  0.0000  0.0000  0.0000
14065SI     SI114065   0.021   5.807   8.336  0.0000  0.0000  0.0000
14066SI     SI114066   9.102   5.699   8.816  0.0000  0.0000  0.0000
14067SI     SI114067   2.965   2.227   9.555  0.0000  0.0000  0.0000
14068SI     SI114068   3.674   8.618   8.821  0.0000  0.0000  0.0000
14069SI     SI114069   3.021   1.097   8.943  0.0000  0.0000  0.0000
14070SI     SI114070   0.640   7.202   9.021  0.0000  0.0000  0.0000
14071SI     SI114071   6.218   6.966   8.809  0.0000  0.0000  0.0000
14072SI     SI114072   5.297   9.393   0.250  0.0000  0.0000  0.0000
14073SI     SI114073   8.406   9.512   8.950  0.0000  0.0000  0.0000
14074SI     SI114074   2.587   2.314   9.112  0.0000  0.0000  0.0000
14075SI     SI114075   4.191   8.504   8.556  0.0000  0.0000  0.0000
14076SI     SI114076   2.324   3.523   0.932  0.0000  0.0000  0.0000
14077SI     SI114077   3.840   8.052   8.984  0.0000  0.0000  0.0000
14078SI     SI114078   5.420   2.742   0.904  0.0000  0.0000  0.0000
14079SI     SI114079   9.137   3.678   0.129  0.0000  0.0000  0.0000
14080SI     SI114080   9.365   8.184   0.916  0.0000  0.0000  0.0000
14081SI     SI114081   6.418   2.457   1.107  0.0000  0.0000  0.0000
14082SI     SI114082   3.330   4.580   0.509  0.0000  0.0000  0.0000
14083SI     SI114083   5.502   5.282   9.549  0.0000  0.0000  0.0000
14084SI     SI114084   7.116   3.391   8.394  0.0000  0.0000  0.0000
14085SI     SI114085   3.183   6.226   1.088  0.0000  0.0000  0.0000
14086SI     SI114086   0.280   0.413   9.499  0.0000  0.0000  0.0000
14087SI     SI114087   6.682   8.922   1.188  0.0000  0.0000  0.0000
14088SI     SI114088   0.536   8.478   0.057  0.0000  0.0000  0.0000
14089SI     SI114089   4.834   7.465   0.055  0.0000  0.0000  0.0000
14090SI     SI114090   4.078   5.595   9.165  0.0000  0.0000  0.0000
14091SI     SI114091   8.055   5.858   0.985  0.0000  0.0000  0.0000
14092SI     SI114092   6.614   8.951   0.635  0.0000  0.0000  0.0000
14093SI     SI114093   4.228   0.810   9.082  0.0000  0.0000  0.0000
14094SI     SI114094   6.055   5.076   1.120  0.0000  0.0000  0.0000
14095SI     SI114095   4.622   3.721   8.712  0.0000  0.0000  0.0000
14096SI     SI114096   9.474   1.691   0.518  0.0000  0.0000  0.0000
14097SI     SI114097   8.565   2.436   8.632  0.0000  0.0000  0.0000
14098SI     SI114098   0.536   6.663   0.966  0.0000  0.0000  0.0000
14099SI     SI114099   0.049   8.031   9.526  0.0000  0.0000  0.0000
14100SI     SI114100   0.278   3.553   9.222  0.0000  0.0000  0.0000
14101SI     SI114101   2.387   4.536   9.266  0.0000  0.0000  0.0000
14102SI     SI114102   8.812   2.460   0.540  0.0000  0.0000  0.0000
14103SI     SI114103   1.846   1.090   8.804  0.0000  0.0000  0.0000
14104SI     SI114104   8.451   0.182   0.162  0.0000  0.0000  0.0000
14105SI     SI114105   8.038   9.385   0.035  0.0000  0.0000  0.0000
14106SI     SI114106   1.412   5.015   0.049  0.0000  0.0000  0.0000
14107SI     SI114107   2.080   3.377   1.066  0.0000  0.0000  0.0000
14108SI     SI114108   5.765   4.309   9.192  0.0000  0.0000  0.0000
14109SI     SI114109   0.625   5.071   9.418  0.0000  0.0000  0.0000
14110SI     SI114110   6.619   1.732   9.435  0.0000  0.0000  0.0000
14111SI     SI114111   7.107   9.396   1.131  0.0000  0.0000  0.0000
14112SI     SI114112   0.302   6.180   9.027  0.0000  0.0000  0.0000
14113SI     SI114113   8.225   7.164   8.700  0.0000  0.0000  0.0000
14114SI     SI114114   2.387   8.119   9.556  0.0000  0.0000  0.0000
14115SI     SI114115   5.589   5.564   9.257  0.0000  0.0000  0.0000
14116SI     SI114116   4.350   1.622   9.492  0.0000  0.0000  0.0000
14117SI     SI114117   2.448   1.225   1.011  0.0000  0.0000  0.0000
14118SI     SI114118   0.033   5.985   0.201  0.0000  0.0000  0.0000
14119SI     SI114119   7.204   2.733   0.425  0.0000  0.0000  0.0000
14120SI     SI114120   5.896   8.135   0.264  0.0000  0.0000  0.0000
14121SI     SI114121   1.726   8.149   0.582  0.0000  0.0000  0.0000
14122SI     SI114122   4.309   3.796   0.767  0.0000  0.0000  0.0000
14123SI     SI114123   4.269   1.992   8.671  0.0000  0.0000  0.0000
14124SI     SI114124   1.027   3.261   9.181  0.0000  0.0000  0.0000
14125SI     SI114125   1.623   5.340   8.652  0.0000  0.0000  0.0000
14126SI     SI114126   5.307   3.347   8.690  0.0000  0.0000  0.0000
14127SI     SI114127   3.063   0.278   9.391  0.0000  0.0000  0.0000
14128SI     SI114128   9.420   4.608   8.846  0.0000  0.0000  0.0000
14129SI     SI114129   1.096   6.221   9.165  0.0000  0.0000  0.0000
14130SI     SI114130   1.736   2.397   8.715  0.0000  0.0000  0.0000
14131SI     SI114131   6.805   1.652   0.078  0.0000  0.0000  0.0000
14132SI     SI114132   3.088   3.641   0.724  0.0000  0.0000  0.0000
14133SI     SI114133   0.176   1.740   0.471  0.0000  0.0000  0.0000
14134SI     SI114134   4.957   7.063   0.470  0.0000  0.0000  0.0000
14135SI     SI114135   1.202   2.676   9.426  0.0000  0.0000  0.0000
14136SI     SI114136   0.027   2.246   0.096  0.0000  0.0000  0.0000
14137SI     SI114137   1.746   7.988   8.778  0.0000  0.0000  0.0000
14138SI     SI114138   3.220   6.578   9.601  0.0000  0.0000  0.0000
14139SI     SI114139   5.639   8.169   9.321  0.0000  0.0000  0.0000
14140SI     SI114140   9.045   2.770   0.354  0.0000  0.0000  0.0000
14141SI     SI114141   5.164   0.639   0.490  0.0000  0.0000  0.0000
14142SI     SI114142   8.169   8.034   8.858  0.0000  0.0000  0.0000
14143SI     SI114143   0.696   5.555   8.883  0.0000  0.0000  0.0000
14144SI     SI114144   8.646   1.273   0.255  0.0000  0.0000  0.0000
14145SI     SI114145   7.265   8.924   1.236  0.0000  0.0000  0.0000
14146SI     SI114146   7.487   7.581   0.548  0.0000  0.0000  0.0000
14147SI     SI114147   5.919   1.256   0.357  0.0000  0.0000  0.0000
14148SI     SI114148   4.581   7.214   9.262  0.0000  0.0000  0.0000
14149SI     SI114149   3.989   3.232   8.989  0.0000  0.0000  0.0000
14150SI     SI114150   7.854   6.592   8.482  0.0000  0.0000  0.0000
14151SI     SI114151   9.524   0.715   8.914  0.0000  0.0000  0.0000
14152SI     SI114152   6.377   3.892   0.117  0.0000  0.0000  0.0000
14153SI     SI114153   0.544   4.772   1.185  0.0000  0.0000  0.0000
14154SI     SI114154   2.132   4.149   0.961  0.0000  0.0000  0.0000
14155SI     SI114155   4.992   8.572   9.248  0.0000  0.0000  0.0000
14156SI     SI114156   3.686   4.370   0.201  0.0000  0.0000  0.0000
14157SI     SI114157   1.257   6.338   0.430  0.0000  0.0000  0.0000
14158SI     SI114158   8.834   7.601   1.030  0.0000  0.0000  0.0000
14159SI     SI114159   4.540   8.980   9.493  0.0000  0.0000  0.0000
14160SI     SI114160   9.408   4.186   0.476  0.0000  0.0000  0.0000
14161SI     SI114161   0.337   8.574   8.415  0.0000  0.0000  0.0000
14162SI     SI114162   5.088   1.987   9.270  0.0000  0.0000  0.0000
14163SI     SI114163   7.723   8.851   0.780  0.0000  0.0000  0.0000
14164SI     SI114164   4.625   7.551   0.264  0.0000  0.0000  0.0000
14165SI     SI114165   6.223   9.311   9.380  0.0000  0.0000  0.0000
14166SI     SI114166   6.534   3.337   0.648  0.0000  0.0000  0.0000
14167SI     SI114167   8.392   5.037   0.609  0.0000  0.0000  0.0000
14168SI     SI114168   2.544   3.760   9.456  0.0000  0.0000  0.0000
14169SI     SI114169   1.866   5.444   0.431  0.0000  0.0000  0.0000
14170SI     SI114170   1.069   6.772   8.807  0.0000  0.0000  0.0000
14171SI     SI114171   0.158   0.757   8.709  0.0000  0.0000  0.0000
14172SI     SI114172   0.648   1.145   0.569  0.0000  0.0000  0.0000
14173SI     SI114173   1.892   2.638   9.545  0.0000  0.0000  0.0000
14174SI     SI114174   0.825   1.116   0.132  0.0000  0.0000  0.0000
14175SI     SI114175   0.026   9.247   9.440  0.0000  0.0000  0.0000
14176SI     SI114176   3.632   4.491   9.226  0.0000  0.0000  0.0000
14177SI     SI114177   0.689   3.300   0.979  0.0000  0.0000  0.0000
14178SI     SI114178   0.272   9.134   9.580  0.0000  0.0000  0.0000
14179SI     SI114179   2.760   0.485   9.582  0.0000  0.0000  0.0000
14180SI     SI114180   2.563   4.013   0.644  0.0000  0.0000  0.0000
14181SI     SI114181   5.955   7.046   8.661  0.0000  0.0000  0.0000
14182SI     SI114182   1.066   6.257   0.758  0.0000  0.0000  0.0000
14183SI     SI114183   1.381   2.415   0.608  0.0000  0.0000  0.0000
14184SI     SI114184   0.436   8.662   9.178  0.0000  0.0000  0.0000
14185SI     SI114185   4.990   5.848   0.101  0.0000  0.0000  0.0000
14186SI     SI114186   0.958   1.167   0.558  0.0000  0.0000  0.0000
14187SI     SI114187   0.796   6.259   0.580  0.0000  0.0000  0.0000
14188SI     SI114188   4.564   7.231   0.809  0.0000  0.0000  0.0000
14189SI     SI114189   8.491   6.222   0.149  0.0000  0.0000  0.0000
14190SI     SI114190   2.369   4.855   1.114  0.0000  0.0000  0.0000
14191SI     SI114191   8.037   3.432   0.693  0.0000  0.0000  0.0000
14192SI     SI114192   8.910   4.019   0.602  0.0000  0.0000  0.0000
14193SI     SI114193   1.860   9.459   9.345  0.0000  0.0000  0.0000
14194SI     SI114194   4.199   3.158   1.014  0.0000  0.0000  0.0000
14195SI     SI114195   3.850   9.311   9.459  0.0000  0.0000  0.0000
14196SI     SI114196   1.836   2.448   9.002  0.0000  0.0000  0.0000
14197SI     SI114197   4.329   1.392   0.573  0.0000  0.0000  0.0000
14198SI     SI114198   0.201   2.743   9.261  0.0000  0.0000  0.0000
14199SI     SI114199   6.887   6.622   9.405  0.0000  0.0000  0.0000
14200SI     SI114200   5.196   1.079   1.111  0.0000  0.0000  0.0000
14201SI     SI114201   6.501   8.599   9.004  0.0000  0.0000  0.0000
14202SI     SI114202   7.441   5.091   9.169  0.0000  0.0000  0.0000
14203SI     SI114203   4.068   2.010   0.106  0.0000  0.0000  0.0000
14204SI     SI114204   4.254   0.273   8.775  0.0000  0.0000  0.0000
14205SI     SI114205   7.324   5.348   9.050  0.0000  0.0000  0.0000
14206SI     SI114206   4.783   9.124   0.561  0.0000  0.0000  0.0000
14207SI     SI114207   6.196   5.797   8.367  0.0000  0.0000  0.0000
14208SI     SI114208   6.608   0.018   0.631  0.0000  0.0000  0.0000
14209SI     SI114209   2.537   6.181   8.621  0.0000  0.0000  0.0000
14210SI     SI114210   5.281   6.475   9.048  0.0000  0.0000  0.0000
14211SI     SI114211   3.733   6.182   0.333  0.0000  0.0000  0.0000
14212SI     SI114212   1.384   0.405   9.382  0.0000  0.0000  0.0000
14213SI     SI114213   1.401   2.412   8.305  0.0000  0.0000  0.0000
14214SI     SI114214   3.162   8.084   8.692  0.0000  0.0000  0.0000
14215SI     SI114215   3.862   3.935   0.806  0.0000  0.0000  0.0000
14216SI     SI114216   5.456   3.181   9.112  0.0000  0.0000  0.0000
14217SI     SI114217   5.875   5.502   9.329  0.0000  0.0000  0.0000
14218SI     SI114218   7.855   1.328   8.430  0.0000  0.0000  0.0000
14219SI     SI114219   2.798   9.236   8.487  0.0000  0.0000  0.0000
14220SI     SI114220   5.365   8.812   0.157  0.0000  0.0000  0.0000
14221SI     SI114221   7.344   2.675   0.032  0.0000  0.0000  0.0000
14222SI     SI114222   2.922   0.614   8.701  0.0000  0.0000  0.0000
14223SI     SI114223   2.320   6.637   9.407  0.0000  0.0000  0.0000
14224SI     SI114224   8.111   0.242   9.417  0.0000  0.0000  0.0000
14225SI     SI114225   8.422   9.238   0.100  0.0000  0.0000  0.0000
14226SI     SI114226   4.408   6.843   1.142  0.0000  0.0000  0.0000
14227SI     SI114227   5.557   6.604   8.591  0.0000  0.0000  0.0000
14228SI     SI114228   4.138   6.517   9.441  0.0000  0.0000  0.0000
14229SI     SI114229   4.516   9.375   0.736  0.0000  0.0000  0.0000
14230SI     SI114230   9.180   2.293   0.287  0.0000  0.0000  0.0000
14231SI     SI114231   9.124   5.861   0.204  0.0000  0.0000  0.0000
14232SI     SI114232   3.742   8.976   9.024  0.0000  0.0000  0.0000
14233SI     SI114233   3.683   2.960   9.342  0.0000  0.0000  0.0000
14234SI     SI114234   7.258   4.448   0.168  0.0000  0.0000  0.0000
14235SI     SI114235   7.944   5.257   0.672  0.0000  0.0000  0.0000
14236SI     SI114236   0.819   1.888   8.370  0.0000  0.0000  0.0000
14237SI     SI114237   5.978   2.248   0.842  0.0000  0.0000  0.0000
14238SI     SI114238   0.640   6.724   0.518  0.0000  0.0000  0.0000
14239SI     SI114239   7.501   3.431   9.215  0.0000  0.0000  0.0000
14240SI     SI114240   8.648   5.875   0.011  0.0000  0.0000  0.0000
14241SI     SI114241   6.997   1.873   9.296  0.0000  0.0000  0.0000
14242SI     SI114242   8.582   0.615   8.928  0.0000  0.0000  0.0000
14243SI     SI114243   4.823   8.398   0.724  0.0000  0.0000  0.0000
14244SI     SI114244   5.003   4.288   9.485  0.0000  0.0000  0.0000
14245SI     SI114245   3.579   5.252   0.317  0.0000  0.0000  0.0000
14246SI     SI114246   5.581   2.275   9.532  0.0000  0.0000  0.0000
14247SI     SI114247   3.248   8.800   0.393  0.0000  0.0000  0.0000
14248SI     SI114248   2.212   6.753   8.902  0.0000  0.0000  0.0000
14249SI     SI114249   5.910   3.883   9.493  0.0000  0.0000  0.0000
14250SI     SI114250   4.662   4.854   0.733  0.0000  0.0000  0.0000
14251SI     SI114251   8.034   7.537   8.846  0.0000  0.0000  0.0000
14252SI     SI114252   0.019   6.222   8.915  0.0000  0.0000  0.0000
14253SI     SI114253   4.862   4.210   0.640  0.0000  0.0000  0.0000
14254SI     SI114254   9.499   3.327   8.936  0.0000  0.0000  0.0000
14255SI     SI114255   8.006   2.420   0.143  0.0000  0.0000  0.0000
14256SI     SI114256   0.274   9.162   8.462  0.0000  0.0000  0.0000
14257SI     SI114257   4.006   1.414   1.385  0.0000  0.0000  0.0000
14258SI     SI114258   5.280   1.549   9.320  0.0000  0.0000  0.0000
14259SI     SI114259   3.865   2.851   8.859  0.0000  0.0000  0.0000
14260SI     SI114260   8.888   1.593   8.939  0.0000  0.0000  0.0000
14261SI     SI114261   3.625   4.423   8.934  0.0000  0.0000  0.0000
14262SI     SI114262   2.001   4.124   0.148  0.0000  0.0000  0.0000
14263SI     SI114263   2.212   1.945   9.491  0.0000  0.0000  0.0000
14264SI     SI114264   7.721   9.297   9.350  0.0000  0.0000  0.0000
14265SI     SI114265   3.268   8.191   8.202  0.0000  0.0000  0.0000
14266SI     SI114266   7.772   8.127   9.125  0.0000  0.0000  0.0000
14267SI     SI114267   4.293   7.838   1.363  0.0000  0.0000  0.0000
14268SI     SI114268   9.321   1.165   8.188  0.0000  0.0000  0.0000
14269SI     SI114269   8.555   8.494   9.411  0.0000  0.0000  0.0000
14270SI     SI114270   8.596   2.795   8.947  0.0000  0.0000  0.0000
14271SI     SI114271   3.486   0.792   9.233  0.0000  0.0000  0.0000
14272SI     SI114272   5.676   4.486   0.408  0.0000  0.0000  0.0000
14273SI     SI114273   0.677   5.777   1.145  0.0000  0.0000  0.0000
14274SI     SI114274   8.558   4.471   9.430  0.0000  0.0000  0.0000
14275SI     SI114275   0.513   5.850   0.440  0.0000  0.0000  0.0000
14276SI     SI114276   3.500   4.785   8.749  0.0000  0.0000  0.0000
14277SI     SI114277   2.809   2.787   9.096  0.0000  0.0000  0.0000
14278SI     SI114278   8.768   4.534   0.756  0.0000  0.0000  0.0000
14279SI     SI114279   2.491   2.178   0.249  0.0000  0.0000  0.0000
14280SI     SI114280   4.186   6.061   9.392  0.0000  0.0000  0.0000
14281SI     SI114281   1.712   3.825   1.126  0.0000  0.0000  0.0000
14282SI     SI114282   9.248   6.189   0.763  0.0000  0.0000  0.0000
14283SI     SI114283   4.280   5.310   8.727  0.0000  0.0000  0.0000
14284SI     SI114284   9.090   6.467   9.568  0.0000  0.0000  0.0000
14285SI     SI114285   1.079   0.899   1.330  0.0000  0.0000  0.0000
14286SI     SI114286   6.628   9.484   0.109  0.0000  0.0000  0.0000
14287SI     SI114287   1.518   9.102   9.267  0.0000  0.0000  0.0000
14288SI     SI114288   9.152   6.692   9.358  0.0000  0.0000  0.0000
14289SI     SI114289   2.517   5.905   8.719  0.0000  0.0000  0.0000
14290SI     SI114290   7.301   5.411   0.759  0.0000  0.0000  0.0000
14291SI     SI114291   6.222   4.221   0.868  0.0000  0.0000  0.0000
14292SI     SI114292   2.706   7.452   8.731  0.0000  0.0000  0.0000
14293SI     SI114293   7.118   1.167   1.049  0.0000  0.0000  0.0000
14294SI     SI114294   8.187   7.281   9.462  0.0000  0.0000  0.0000
14295SI     SI114295   0.208   4.744   8.525  0.0000  0.0000  0.0000
14296SI     SI114296   0.688   8.958   0.731  0.0000  0.0000  0.0000
14297SI     SI114297   6.239   2.013   8.991  0.0000  0.0000  0.0000
14298SI     SI114298   5.979   2.898   9.160  0.0000  0.0000  0.0000
14299SI     SI114299   3.645   3.797   0.397  0.0000  0.0000  0.0000
14300SI     SI114300   6.174   0.540   0.817  0.0000  0.0000  0.0000
14301SI     SI114301   8.585   0.156   9.042  0.0000  0.0000  0.0000
14302SI     SI114302   0.095   3.469   0.556  0.0000  0.0000  0.0000
14303SI     SI114303   2.626   8.171   0.505  0.0000  0.0000  0.0000
14304SI     SI114304   6.320   2.720   9.222  0.0000  0.0000  0.0000
14305SI     SI114305   0.828   7.763   0.472  0.0000  0.0000  0.0000
14306SI     SI114306   0.826   9.453   8.584  0.0000  0.0000  0.0000
14307SI     SI114307   3.617   7.720   1.249  0.0000  0.0000  0.0000
14308SI     SI114308   7.718   8.687   0.271  0.0000  0.0000  0.0000
14309SI     SI114309   2.545   9.320   8.668  0.0000  0.0000  0.0000
14310SI     SI114310   0.977   8.132   8.254  0.0000  0.0000  0.0000
14311SI     SI114311   2.891   5.418   8.984  0.0000  0.0000  0.0000
14312SI     SI114312   5.846   6.817   0.737  0.0000  0.0000  0.0000
14313SI     SI114313   7.933   4.365   0.697  0.0000  0.0000  0.0000
14314SI     SI114314   4.221   3.179   9.422  0.0000  0.0000  0.0000
14315SI     SI114315   3.192   8.139   0.979  0.0000  0.0000  0.0000
14316SI     SI114316   3.646   0.778   0.182  0.0000  0.0000  0.0000
14317SI     SI114317   4.734   1.810   0.741  0.0000  0.0000  0.0000
14318SI     SI114318   3.790   4.725   8.682  0.0000  0.0000  0.0000
14319SI     SI114319   7.805   0.473   1.136  0.0000  0.0000  0.0000
14320SI     SI114320   0.077   1.807   8.628  0.0000  0.0000  0.0000
14321SI     SI114321   0.461   5.572   1.192  0.0000  0.0000  0.0000
14322SI     SI114322   6.174   0.102   0.001  0.0000  0.0000  0.0000
14323SI     SI114323   0.544   5.502   0.094  0.0000  0.0000  0.0000
14324SI     SI114324   1.920   6.779   9.282  0.0000  0.0000  0.0000
14325SI     SI114325   3.868   8.985   0.598  0.0000  0.0000  0.0000
14326SI     SI114326   4.235   2.213   9.588  0.0000  0.0000  0.0000
14327SI     SI114327   2.444   6.241   0.919  0.0000  0.0000  0.0000
14328SI     SI114328   5.834   6.128   9.163  0.0000  0.0000  0.0000
14329SI     SI114329   5.887   5.303   8.588  0.0000  0.0000  0.0000
14330SI     SI114330   5.188   3.768   8.740  0.0000  0.0000  0.0000
14331SI     SI114331   0.173   8.161   1.107  0.0000  0.0000  0.0000
14332SI     SI114332   8.853   5.760   8.631  0.0000  0.0000  0.0000
14333SI     SI114333   8.076   6.657   0.247  0.0000  0.0000  0.0000
14334SI     SI114334   3.249   4.169   0.966  0.0000  0.0000  0.0000
14335SI     SI114335   2.456   4.427   0.098  0.0000  0.0000  0.0000
14336SI     SI114336   0.833   3.765   9.417  0.0000  0.0000  0.0000
14337SI     SI114337   2.222   7.172   0.480  0.0000  0.0000  0.0000
14338SI     SI114338   5.293   2.650   9.482  0.0000  0.0000  0.0000
14339SI     SI114339   3.451   7.790   9.477  0.0000  0.0000  0.0000
14340SI     SI114340   5.956   6.245   0.908  0.0000  0.0000  0.0000
14341SI     SI114341   3.172   5.917   0.408  0.0000  0.0000  0.0000
14342SI     SI114342   0.621   2.816   0.644  0.0000  0.0000  0.0000
14343SI     SI114343   3.138   9.059   8.979  0.0000  0.0000  0.0000
14344SI     SI114344   6.751   2.485   0.643  0.0000  0.0000  0.0000
14345SI     SI114345   6.312   1.723   0.724  0.0000  0.0000  0.0000
14346SI     SI114346   0.789   1.003   8.865  0.0000  0.0000  0.0000
14347SI     SI114347   6.905   5.385   0.560  0.0000  0.0000  0.0000
14348SI     SI114348   4.421   1.549   1.293  0.0000  0.0000  0.0000
14349SI     SI114349   8.565   7.901   8.472  0.0000  0.0000  0.0000
14350SI     SI114350   8.618   8.175   8.603  0.0000  0.0000  0.0000
14351SI     SI114351   3.307   8.848   8.819  0.0000  0.0000  0.0000
14352SI     SI114352   8.875   8.730   0.045  0.0000  0.0000  0.0000
14353SI     SI114353   6.952   7.192   9.306  0.0000  0.0000  0.0000
14354SI     SI114354   2.966   8.003   9.497  0.0000  0.0000  0.0000
14355SI     SI114355   3.073   9.478   0.004  0.0000  0.0000  0.0000
14356SI     SI114356   3.075   4.151   0.706  0.0000  0.0000  0.0000
14357SI     SI114357   5.154   8.200   8.482  0.0000  0.0000  0.0000
14358SI     SI114358   1.562   8.283   1.026  0.0000  0.0000  0.0000
14359SI     SI114359   0.668   7.641   0.094  0.0000  0.0000  0.0000
14360SI     SI114360   7.216   4.025   0.898  0.0000  0.0000  0.0000
14361SI     SI114361   6.986   2.576   9.340  0.0000  0.0000  0.0000
14362SI     SI114362   7.137   0.268   8.704  0.0000  0.0000  0.0000
14363SI     SI114363   3.052   7.748   0.052  0.0000  0.0000  0.0000
14364SI     SI114364   8.094   6.963   9.151  0.0000  0.0000  0.0000
14365SI     SI114365   6.278   9.121   9.143  0.0000  0.0000  0.0000
14366SI     SI114366   2.895   4.464   9.113  0.0000  0.0000  0.0000
14367SI     SI114367   8.926   1.392   0.245  0.0000  0.0000  0.0000
14368SI     SI114368   0.972   0.139   9.239  0.0000  0.0000  0.0000
14369SI     SI114369   6.249   4.510   0.366  0.0000  0.0000  0.0000
14370SI     SI114370   3.551   2.559   9.038  0.0000  0.0000  0.0000
14371SI     SI114371   2.413   1.356   0.201  0.0000  0.0000  0.0000
14372SI     SI114372   4.406   2.930   9.366  0.0000  0.0000  0.0000
14373SI     SI114373   8.540   8.642   0.586  0.0000  0.0000  0.0000
14374SI     SI114374   1.992   0.563   0.460  0.0000  0.0000  0.0000
14375SI     SI114375   9.407   9.064   9.316  0.0000  0.0000  0.0000
14376SI     SI114376   6.495   0.267   8.351  0.0000  0.0000  0.0000
14377SI     SI114377   2.249   9.181   9.262  0.0000  0.0000  0.0000
14378SI     SI114378   3.567   7.070   0.399  0.0000  0.0000  0.0000
14379SI     SI114379   6.912   7.588   8.918  0.0000  0.0000  0.0000
14380SI     SI114380   7.136   8.244   0.296  0.0000  0.0000  0.0000
14381SI     SI114381   6.707   8.472   0.990  0.0000  0.0000  0.0000
14382SI     SI114382   3.324   1.495   0.497  0.0000  0.0000  0.0000
14383SI     SI114383   0.786   2.399   8.434  0.0000  0.0000  0.0000
14384SI     SI114384   0.633   6.849   0.226  0.0000  0.0000  0.0000
14385SI     SI114385   4.596   8.186   8.337  0.0000  0.0000  0.0000
14386SI     SI114386   5.211   8.499   8.485  0.0000  0.0000  0.0000
14387SI     SI114387   4.766   1.932   8.545  0.0000  0.0000  0.0000
14388SI     SI114388   6.803   2.227   0.466  0.0000  0.0000  0.0000
14389SI     SI114389   8.570   2.474   0.225  0.0000  0.0000  0.0000
14390SI     SI114390   8.572   8.243   0.133  0.0000  0.0000  0.0000
14391SI     SI114391   4.621   8.804   0.745  0.0000  0.0000  0.0000
14392SI     SI114392   1.419   6.507   0.627  0.0000  0.0000  0.0000
14393SI     SI114393   1.019   9.128   8.543  0.0000  0.0000  0.0000
14394SI     SI114394   7.064   7.775   1.004  0.0000  0.0000  0.0000
14395SI     SI114395   2.639   9.145   0.605  0.0000  0.0000  0.0000
14396SI     SI114396   9.483   6.049   8.486  0.0000  0.0000  0.0000
14397SI     SI114397   4.342   7.590   9.215  0.0000  0.0000  0.0000
14398SI     SI114398   6.632   2.715   9.025  0.0000  0.0000  0.0000
14399SI     SI114399   4.238   8.445   9.506  0.0000  0.0000  0.0000
14400SI     SI114400   7.650   5.256   8.646  0.0000  0.0000  0.0000
14401SI     SI114401   1.273   6.030   0.716  0.0000  0.0000  0.0000
14402SI     SI114402   2.776   1.060   8.777  0.0000  0.0000  0.0000
14403SI     SI114403   9.181   5.114   1.415  0.0000  0.0000  0.0000
14404SI     SI114404   2.608   6.888   1.269  0.0000  0.0000  0.0000
14405SI     SI114405   7.550   8.210   1.005  0.0000  0.0000  0.0000
14406SI     SI114406   5.440   4.217   0.140  0.0000  0.0000  0.0000
14407SI     SI114407   3.950   0.229   0.912  0.0000  0.0000  0.0000
14408SI     SI114408   0.974   6.919   1.015  0.0000  0.0000  0.0000
14409SI     SI114409   6.985   3.402   0.012  0.0000  0.0000  0.0000
14410SI     SI114410   2.949   4.011   8.883  0.0000  0.0000  0.0000
14411SI     SI114411   3.930   8.838   9.341  0.0000  0.0000  0.0000
14412SI     SI114412   3.998   4.868   9.326  0.0000  0.0000  0.0000
14413SI     SI114413   8.987   5.269   1.000  0.0000  0.0000  0.0000
14414SI     SI114414   2.158   5.273   9.333  0.0000  0.0000  0.0000
14415SI     SI114415   9.279   7.472   9.174  0.0000  0.0000  0.0000
14416SI     SI114416   9.169   4.316   1.063  0.0000  0.0000  0.0000
14417SI     SI114417   2.540   5.104   1.125  0.0000  0.0000  0.0000
14418SI     SI114418   9.352   3.386   0.804  0.0000  0.0000  0.0000
14419SI     SI114419   3.699   8.723   0.200  0.0000  0.0000  0.0000
14420SI     SI114420   4.305   6.501   0.767  0.0000  0.0000  0.0000
14421SI     SI114421   7.790   1.724   0.602  0.0000  0.0000  0.0000
14422SI     SI114422   1.345   5.905   0.256  0.0000  0.0000  0.0000
14423SI     SI114423   6.003   1.054   9.351  0.0000  0.0000  0.0000
14424SI     SI114424   1.141   1.761   0.223  0.0000  0.0000  0.0000
14425SI     SI114425   1.895   7.116   1.162  0.0000  0.0000  0.0000
14426SI     SI114426   4.660   5.773   8.807  0.0000  0.0000  0.0000
14427SI     SI114427   0.383   7.766   8.618  0.0000  0.0000  0.0000
14428SI     SI114428   3.729   4.787   0.539  0.0000  0.0000  0.0000
14429SI     SI114429   9.387   3.111   0.955  0.0000  0.0000  0.0000
14430SI     SI114430   2.271   7.953   0.832  0.0000  0.0000  0.0000
14431SI     SI114431   1.749   2.201   0.046  0.0000  0.0000  0.0000
14432SI     SI114432   7.609   0.999   0.643  0.0000  0.0000  0.0000
14433SI     SI114433   9.248   2.913   8.728  0.0000  0.0000  0.0000
14434SI     SI114434   2.752   1.268   9.460  0.0000  0.0000  0.0000
14435SI     SI114435   5.757   5.335   0.885  0.0000  0.0000  0.0000
14436SI     SI114436   8.915   8.592   8.680  0.0000  0.0000  0.0000
14437SI     SI114437   5.913   0.703   0.346  0.0000  0.0000  0.0000
14438SI     SI114438   3.047   6.718   0.475  0.0000  0.0000  0.0000
14439SI     SI114439   4.773   1.327   9.319  0.0000  0.0000  0.0000
14440SI     SI114440   8.762   6.636   8.877  0.0000  0.0000  0.0000
14441SI     SI114441   8.976   3.553   9.308  0.0000  0.0000  0.0000
14442SI     SI114442   1.169   0.296   8.823  0.0000  0.0000  0.0000
14443SI     SI114443   8.891   8.840   8.518  0.0000  0.0000  0.0000
14444SI     SI114444   2.524   4.135   0.195  0.0000  0.0000  0.0000
14445SI     SI114445   5.153   1.801   0.305  0.0000  0.0000  0.0000
14446SI     SI114446   5.210   0.219   1.127  0.0000  0.0000  0.0000
14447SI     SI114447   3.775   5.154   9.039  0.0000  0.0000  0.0000
14448SI     SI114448   5.545   5.982   8.911  0.0000  0.0000  0.0000
14449SI     SI114449   5.622   3.571   0.646  0.0000  0.0000  0.0000
14450SI     SI114450   5.910   9.529   9.055  0.0000  0.0000  0.0000
14451SI     SI114451   8.183   2.760   9.120  0.0000  0.0000  0.0000
14452SI     SI114452   6.764   6.794   9.177  0.0000  0.0000  0.0000
14453SI     SI114453   4.212   2.475   8.457  0.0000  0.0000  0.0000
14454SI     SI114454   1.342   1.291   8.320  0.0000  0.0000  0.0000
14455SI     SI114455   7.428   3.551   0.722  0.0000  0.0000  0.0000
14456SI     SI114456   3.916   0.944   8.656  0.0000  0.0000  0.0000
14457SI     SI114457   0.987   3.459   8.745  0.0000  0.0000  0.0000
14458SI     SI114458   1.886   5.219   9.192  0.0000  0.0000  0.0000
14459SI     SI114459   2.955   0.483   8.988  0.0000  0.0000  0.0000
14460SI     SI114460   7.410   7.382   8.467  0.0000  0.0000  0.0000
14461SI     SI114461   7.514   9.496   9.003  0.0000  0.0000  0.0000
14462SI     SI114462   1.884   0.029   8.742  0.0000  0.0000  0.0000
14463SI     SI114463   2.616   8.908   9.514  0.0000  0.0000  0.0000
14464SI     SI114464   5.484   7.200   9.384  0.0000  0.0000  0.0000
14465SI     SI114465   8.011   3.005   9.190  0.0000  0.0000  0.0000
14466SI     SI114466   6.678   3.897   1.122  0.0000  0.0000  0.0000
14467SI     SI114467   3.030   8.976   0.493  0.0000  0.0000  0.0000
14468SI     SI114468   6.967   8.981   1.193  0.0000  0.0000  0.0000
14469SI     SI114469   7.849   3.513   0.453  0.0000  0.0000  0.0000
14470SI     SI114470   0.545   5.091   0.406  0.0000  0.0000  0.0000
14471SI     SI114471   0.853   4.849   8.686  0.0000  0.0000  0.0000
14472SI     SI114472   7.211   8.226   9.084  0.0000  0.0000  0.0000
14473SI     SI114473   4.936   0.591   0.278  0.0000  0.0000  0.0000
14474SI     SI114474   1.513   1.119   9.431  0.0000  0.0000  0.0000
14475SI     SI114475   5.847   1.974   0.854  0.0000  0.0000  0.0000
14476SI     SI114476   3.658   3.247   9.283  0.0000  0.0000  0.0000
14477SI     SI114477   0.765   2.814   0.010  0.0000  0.0000  0.0000
14478SI     SI114478   0.357   4.034   0.798  0.0000  0.0000  0.0000
14479SI     SI114479   8.985   6.158   8.808  0.0000  0.0000  0.0000
14480SI     SI114480   2.070   7.012   8.849  0.0000  0.0000  0.0000
14481SI     SI114481   3.357   2.387   8.862  0.0000  0.0000  0.0000
14482SI     SI114482   6.679   8.383   0.490  0.0000  0.0000  0.0000
14483SI     SI114483   7.546   1.533   8.760  0.0000  0.0000  0.0000
14484SI     SI114484   3.044   2.722   0.686  0.0000  0.0000  0.0000
14485SI     SI114485   2.672   1.005   9.295  0.0000  0.0000  0.0000
14486SI     SI114486   0.570   4.545   0.285  0.0000  0.0000  0.0000
14487SI     SI114487   8.382   4.766   9.019  0.0000  0.0000  0.0000
14488SI     SI114488   6.117   2.307   9.015  0.0000  0.0000  0.0000
14489SI     SI114489   9.060   0.372   0.800  0.0000  0.0000  0.0000
14490SI     SI114490   2.118   2.292   0.819  0.0000  0.0000  0.0000
14491SI     SI114491   7.310   1.655   9.495  0.0000  0.0000  0.0000
14492SI     SI114492   0.059   9.498   0.909  0.0000  0.0000  0.0000
14493SI     SI114493   2.892   4.205   0.218  0.0000  0.0000  0.0000
14494SI     SI114494   7.482   4.579   9.021  0.0000  0.0000  0.0000
14495SI     SI114495   2.366   8.972   9.055  0.0000  0.0000  0.0000
14496SI     SI114496   2.940   7.195   9.131  0.0000  0.0000  0.0000
14497SI     SI114497   2.668   6.921   9.359  0.0000  0.0000  0.0000
14498SI     SI114498   1.880   5.750   8.289  0.0000  0.0000  0.0000
14499SI     SI114499   1.661   7.962   9.286  0.0000  0.0000  0.0000
14500SI     SI114500   5.999   4.196   9.045  0.0000  0.0000  0.0000
14501SI     SI114501   9.547   0.922   0.520  0.0000  0.0000  0.0000
14502SI     SI114502   8.132   1.040   0.742  0.0000  0.0000  0.0000
14503SI     SI114503   3.077   8.343   0.508  0.0000  0.0000  0.0000
14504SI     SI114504   8.785   4.505   1.073  0.0000  0.0000  0.0000
14505SI     SI114505   4.711   4.921   9.173  0.0000  0.0000  0.0000
14506SI     SI114506   3.124   4.979   0.195  0.0000  0.0000  0.0000
14507SI     SI114507   3.215   5.807   8.825  0.0000  0.0000  0.0000
14508SI     SI114508   2.873   0.496   0.643  0.0000  0.0000  0.0000
14509SI     SI114509   6.606   0.776   0.628  0.0000  0.0000  0.0000
14510SI     SI114510   2.326   5.433   0.590  0.0000  0.0000  0.0000
14511SI     SI114511   2.115   0.047   0.986  0.0000  0.0000  0.0000
14512SI     SI114512   9.355   3.875   0.809  0.0000  0.0000  0.0000
14513SI     SI114513   1.440   2.853   0.139  0.0000  0.0000  0.0000
14514SI     SI114514   1.225   1.931   9.347  0.0000  0.0000  0.0000
14515SI     SI114515   1.510   5.449   0.057  0.0000  0.0000  0.0000
14516SI     SI114516   2.618   8.477   8.328  0.0000  0.0000  0.0000
14517SI     SI114517   1.904   7.871   8.540  0.0000  0.0000  0.0000
14518SI     SI114518   8.287   3.054   8.733  0.0000  0.0000  0.0000
14519SI     SI114519   4.853   0.684   9.046  0.0000  0.0000  0.0000
14520SI     SI114520   3.246   7.445   0.196  0.0000  0.0000  0.0000
14521SI     SI114521   1.459   8.679   0.743  0.0000  0.0000  0.0000
14522SI     SI114522   5.602   4.022   8.573  0.0000  0.0000  0.0000
14523SI     SI114523   6.803   6.344   9.309  0.0000  0.0000  0.0000
14524SI     SI114524   0.065   9.294   0.477  0.0000  0.0000  0.0000
14525SI     SI114525   8.473   2.353   9.076  0.0000  0.0000  0.0000
14526SI     SI114526   4.503   0.617   9.413  0.0000  0.0000  0.0000
14527SI     SI114527   7.980   1.926   0.212  0.0000  0.0000  0.0000
14528SI     SI114528   0.933   8.216   1.141  0.0000  0.0000  0.0000
14529SI     SI114529   7.643   0.136   0.834  0.0000  0.0000  0.0000
14530SI     SI114530   1.056   3.018   8.976  0.0000  0.0000  0.0000
14531SI     SI114531   5.897   8.446   0.269  0.0000  0.0000  0.0000
14532SI     SI114532   5.487   0.249   0.348  0.0000  0.0000  0.0000
14533SI     SI114533   5.311   2.012   0.759  0.0000  0.0000  0.0000
14534SI     SI114534   8.740   1.075   0.707  0.0000  0.0000  0.0000
14535SI     SI114535   7.226   6.146   0.582  0.0000  0.0000  0.0000
14536SI     SI114536   6.812   7.045   8.818  0.0000  0.0000  0.0000
14537SI     SI114537   5.366   9.367   9.002  0.0000  0.0000  0.0000
14538SI     SI114538   9.144   8.246   8.727  0.0000  0.0000  0.0000
14539SI     SI114539   6.259   6.719   9.130  0.0000  0.0000  0.0000
14540SI     SI114540   5.128   5.795   9.204  0.0000  0.0000  0.0000
14541SI     SI114541   8.959   1.468   8.444  0.0000  0.0000  0.0000
14542SI     SI114542   2.053   9.509   0.167  0.0000  0.0000  0.0000
14543SI     SI114543   6.370   5.789   0.489  0.0000  0.0000  0.0000
14544SI     SI114544   2.447   0.775   0.535  0.0000  0.0000  0.0000
14545SI     SI114545   6.171   7.422   8.835  0.0000  0.0000  0.0000
14546SI     SI114546   2.591   5.744   0.007  0.0000  0.0000  0.0000
14547SI     SI114547   2.221   3.272   9.469  0.0000  0.0000  0.0000
14548SI     SI114548   8.462   6.674   9.235  0.0000  0.0000  0.0000
14549SI     SI114549   5.992   0.169   0.465  0.0000  0.0000  0.0000
14550SI     SI114550   8.937   3.322   0.073  0.0000  0.0000  0.0000
14551SI     SI114551   9.402   4.927   0.162  0.0000  0.0000  0.0000
14552SI     SI114552   0.617   6.470   0.059  0.0000  0.0000  0.0000
14553SI     SI114553   8.796   8.395   8.466  0.0000  0.0000  0.0000
14554SI     SI114554   3.877   5.318   0.351  0.0000  0.0000  0.0000
14555SI     SI114555   8.772   1.145   1.148  0.0000  0.0000  0.0000
14556SI     SI114556   5.844   0.968   9.593  0.0000  0.0000  0.0000
14557SI     SI114557   3.104   7.679   8.503  0.0000  0.0000  0.0000
14558SI     SI114558   7.734   6.505   9.316  0.0000  0.0000  0.0000
14559SI     SI114559   3.757   1.198   9.054  0.0000  0.0000  0.0000
14560SI     SI114560   3.956   0.645   9.503  0.0000  0.0000  0.0000
14561SI     SI114561   6.985   6.982   9.065  0.0000  0.0000  0.0000
14562SI     SI114562   7.054   6.542   0.959  0.0000  0.0000  0.0000
14563SI     SI114563   5.868   2.882   0.219  0.0000  0.0000  0.0000
14564SI     SI114564   6.197   4.547   8.296  0.0000  0.0000  0.0000
14565SI     SI114565   1.319   3.943   0.839  0.0000  0.0000  0.0000
14566SI     SI114566   8.848   7.163   0.693  0.0000  0.0000  0.0000
14567SI     SI114567   4.640   0.552   0.920  0.0000  0.0000  0.0000
14568SI     SI114568   7.535   5.431   8.852  0.0000  0.0000  0.0000
14569SI     SI114569   8.940   2.550   9.053  0.0000  0.0000  0.0000
14570SI     SI114570   4.986   5.070   9.205  0.0000  0.0000  0.0000
14571SI     SI114571   4.618   8.460   9.013  0.0000  0.0000  0.0000
14572SI     SI114572   3.017   1.948   1.099  0.0000  0.0000  0.0000
14573SI     SI114573   6.861   1.653   1.030  0.0000  0.0000  0.0000
14574SI     SI114574   3.720   8.801   1.012  0.0000  0.0000  0.0000
14575SI     SI114575   7.240   2.565   8.625  0.0000  0.0000  0.0000
14576SI     SI114576   3.238   3.515   8.833  0.0000  0.0000  0.0000
14577SI     SI114577   1.660   5.190   0.008  0.0000  0.0000  0.0000
14578SI     SI114578   5.043   9.373   9.297  0.0000  0.0000  0.0000
14579SI     SI114579   9.283   6.459   0.663  0.0000  0.0000  0.0000
14580SI     SI114580   7.819   1.281   0.153  0.0000  0.0000  0.0000
14581SI     SI114581   4.338   7.028   0.899  0.0000  0.0000  0.0000
14582SI     SI114582   7.812   6.484   0.193  0.0000  0.0000  0.0000
14583SI     SI114583   0.472   0.404   9.101  0.0000  0.0000  0.0000
14584SI     SI114584   8.124   5.058   9.351  0.0000  0.0000  0.0000
14585SI     SI114585   0.255   6.174   9.334  0.0000  0.0000  0.0000
14586SI     SI114586   3.966   1.651   1.207  0.0000  0.0000  0.0000
14587SI     SI114587   1.673   7.335   1.136  0.0000  0.0000  0.0000
14588SI     SI114588   4.665   1.074   9.164  0.0000  0.0000  0.0000
14589SI     SI114589   0.258   7.466   8.345  0.0000  0.0000  0.0000
14590SI     SI114590   7.569   7.178   9.018  0.0000  0.0000  0.0000
14591SI     SI114591   8.967   4.631   8.613  0.0000  0.0000  0.0000
14592SI     SI114592   0.844   0.154   0.656  0.0000  0.0000  0.0000
14593SI     SI114593   1.404   4.800   0.869  0.0000  0.0000  0.0000
14594SI     SI114594   4.715   0.476   8.604  0.0000  0.0000  0.0000
14595SI     SI114595   4.657   9.262   9.511  0.0000  0.0000  0.0000
14596SI     SI114596   1.600   4.754   9.297  0.0000  0.0000  0.0000
14597SI     SI114597   3.816   6.858   0.895  0.0000  0.0000  0.0000
14598SI     SI114598   7.092   2.217   9.005  0.0000  0.0000  0.0000
14599SI     SI114599   1.029   4.961   0.954  0.0000  0.0000  0.0000
14600SI     SI114600   3.811   1.328   0.580  0.0000  0.0000  0.0000
14601SI     SI114601   8.623   2.929   0.097  0.0000  0.0000  0.0000
14602SI     SI114602   2.939   1.712   9.422  0.0000  0.0000  0.0000
14603SI     SI114603   8.563   2.908   0.791  0.0000  0.0000  0.0000
14604SI     SI114604   7.124   1.788   1.047  0.0000  0.0000  0.0000
14605SI     SI114605   4.730   0.793   9.301  0.0000  0.0000  0.0000
14606SI     SI114606   8.818   6.557   0.913  0.0000  0.0000  0.0000
14607SI     SI114607   1.305   2.695   0.611  0.0000  0.0000  0.0000
14608SI     SI114608   2.880   4.027   9.391  0.0000  0.0000  0.0000
14609SI     SI114609   1.871   9.314   9.599  0.0000  0.0000  0.0000
14610SI     SI114610   7.606   7.903   0.103  0.0000  0.0000  0.0000
14611SI     SI114611   6.336   9.493   8.793  0.0000  0.0000  0.0000
14612SI     SI114612   0.829   4.759   0.009  0.0000  0.0000  0.0000
14613SI     SI114613   6.419   9.253   1.076  0.0000  0.0000  0.0000
14614SI     SI114614   7.983   1.842   9.221  0.0000  0.0000  0.0000
14615SI     SI114615   1.949   5.737   0.365  0.0000  0.0000  0.0000
14616SI     SI114616   1.448   5.386   8.399  0.0000  0.0000  0.0000
14617SI     SI114617   4.907   2.768   0.925  0.0000  0.0000  0.0000
14618SI     SI114618   0.707   1.421   8.908  0.0000  0.0000  0.0000
14619SI     SI114619   5.879   7.130   0.721  0.0000  0.0000  0.0000
14620SI     SI114620   6.556   6.217   8.594  0.0000  0.0000  0.0000
14621SI     SI114621   3.546   6.401   9.242  0.0000  0.0000  0.0000
14622SI     SI114622   8.252   6.796   8.431  0.0000  0.0000  0.0000
14623SI     SI114623   3.067   8.361   8.797  0.0000  0.0000  0.0000
14624SI     SI114624   7.326   4.614   1.012  0.0000  0.0000  0.0000
14625SI     SI114625   2.658   5.641   9.325  0.0000  0.0000  0.0000
14626SI     SI114626   9.496   5.973   8.795  0.0000  0.0000  0.0000
14627SI     SI114627   1.872   9.061   0.416  0.0000  0.0000  0.0000
14628SI     SI114628   4.919   9.562   9.521  0.0000  0.0000  0.0000
14629SI     SI114629   1.778   4.537   9.211  0.0000  0.0000  0.0000
14630SI     SI114630   3.942   8.608   8.420  0.0000  0.0000  0.0000
14631SI     SI114631   4.274   1.568   8.488  0.0000  0.0000  0.0000
14632SI     SI114632   2.669   2.752   8.643  0.0000  0.0000  0.0000
14633SI     SI114633   1.697   4.062   8.476  0.0000  0.0000  0.0000
14634SI     SI114634   4.247   9.313   9.176  0.0000  0.0000  0.0000
14635SI     SI114635   8.015   8.892   0.081  0.0000  0.0000  0.0000
14636SI     SI114636   6.146   3.555   1.185  0.0000  0.0000  0.0000
14637SI     SI114637   9.402   1.378   0.855  0.0000  0.0000  0.0000
14638SI     SI114638   0.902   2.730   9.353  0.0000  0.0000  0.0000
14639SI     SI114639   7.134   3.512   8.676  0.0000  0.0000  0.0000
14640SI     SI114640   4.208   7.376   0.561  0.0000  0.0000  0.0000
14641SI     SI114641   7.871   7.524   0.775  0.0000  0.0000  0.0000
14642SI     SI114642   0.781   7.995   0.680  0.0000  0.0000  0.0000
14643SI     SI114643   7.535   8.896   0.373  0.0000  0.0000  0.0000
14644SI     SI114644   6.157   9.430   0.681  0.0000  0.0000  0.0000
14645SI     SI114645   6.248   3.907   0.843  0.0000  0.0000  0.0000
14646SI     SI114646   3.761   0.055   0.552  0.0000  0.0000  0.0000
14647SI     SI114647   8.957   2.160   8.512  0.0000  0.0000  0.0000
14648SI     SI114648   7.743   5.040   0.590  0.0000  0.0000  0.0000
14649SI     SI114649   7.834   3.011   8.328  0.0000  0.0000  0.0000
14650SI     SI114650   0.063   1.509   8.518  0.0000  0.0000  0.0000
14651SI     SI114651   6.430   9.512   9.247  0.0000  0.0000  0.0000
14652SI     SI114652   9.229   0.538   8.297  0.0000  0.0000  0.0000
14653SI     SI114653   9.425   7.674   0.692  0.0000  0.0000  0.0000
14654SI     SI114654   5.046   7.968   0.018  0.0000  0.0000  0.0000
14655SI     SI114655   4.617   1.404   0.454  0.0000  0.0000  0.0000
14656SI     SI114656   7.625   3.971   8.536  0.0000  0.0000  0.0000
14657SI     SI114657   4.985   0.413   8.705  0.0000  0.0000  0.0000
14658SI     SI114658   0.543   2.908   8.757  0.0000  0.0000  0.0000
14659SI     SI114659   2.317   2.400   1.245  0.0000  0.0000  0.0000
14660SI     SI114660   8.981   3.058   0.467  0.0000  0.0000  0.0000
14661SI     SI114661   6.455   5.272   9.297  0.0000  0.0000  0.0000
14662SI     SI114662   3.624   4.118   9.004  0.0000  0.0000  0.0000
14663SI     SI114663   6.019   8.793   1.100  0.0000  0.0000  0.0000
14664SI     SI114664   6.175   8.998   8.416  0.0000  0.0000  0.0000
14665SI     SI114665   0.876   9.482   0.916  0.0000  0.0000  0.0000
14666SI     SI114666   0.794   8.653   8.644  0.0000  0.0000  0.0000
14667SI     SI114667   3.614   2.864   9.049  0.0000  0.0000  0.0000
14668SI     SI114668   6.015   5.172   0.381  0.0000  0.0000  0.0000
14669SI     SI114669   8.354   4.574   1.035  0.0000  0.0000  0.0000
14670SI     SI114670   8.276   6.687   8.835  0.0000  0.0000  0.0000
14671SI     SI114671   1.708   3.076   0.990  0.0000  0.0000  0.0000
14672SI     SI114672   3.788   1.310   9.351  0.0000  0.0000  0.0000
14673SI     SI114673   2.557   8.073   0.801  0.0000  0.0000  0.0000
14674SI     SI114674   0.063   4.140   8.849  0.0000  0.0000  0.0000
14675SI     SI114675   7.244   7.672   0.373  0.0000  0.0000  0.0000
14676SI     SI114676   4.043   1.079   8.400  0.0000  0.0000  0.0000
14677SI     SI114677   3.988   5.144   1.394  0.0000  0.0000  0.0000
14678SI     SI114678   5.056   4.541   8.836  0.0000  0.0000  0.0000
14679SI     SI114679   8.045   0.890   1.287  0.0000  0.0000  0.0000
14680SI     SI114680   9.568   8.572   0.317  0.0000  0.0000  0.0000
14681SI     SI114681   5.276   4.317   0.892  0.0000  0.0000  0.0000
14682SI     SI114682   2.851   1.065   1.045  0.0000  0.0000  0.0000
14683SI     SI114683   5.530   0.128   8.307  0.0000  0.0000  0.0000
14684SI     SI114684   5.467   0.086   1.202  0.0000  0.0000  0.0000
14685SI     SI114685   1.582   2.813   0.682  0.0000  0.0000  0.0000
14686SI     SI114686   0.281   8.513   8.967  0.0000  0.0000  0.0000
14687SI     SI114687   8.341   9.241   1.076  0.0000  0.0000  0.0000
14688SI     SI114688   7.639   0.427   9.149  0.0000  0.0000  0.0000
14689SI     SI114689   3.935   1.546   0.736  0.0000  0.0000  0.0000
14690SI     SI114690   4.154   4.072   8.547  0.0000  0.0000  0.0000
14691SI     SI114691   4.901   5.339   9.096  0.0000  0.0000  0.0000
14692SI     SI114692   3.116   2.093   8.559  0.0000  0.0000  0.0000
14693SI     SI114693   4.378   6.499   8.474  0.0000  0.0000  0.0000
14694SI     SI114694   6.695   4.283   9.215  0.0000  0.0000  0.0000
14695SI     SI114695   8.543   5.507   8.253  0.0000  0.0000  0.0000
14696SI     SI114696   6.116   4.803   8.680  0.0000  0.0000  0.0000
14697SI     SI114697   7.709   1.827   0.321  0.0000  0.0000  0.0000
14698SI     SI114698   1.397   8.064   0.018  0.0000  0.0000  0.0000
14699SI     SI114699   0.180   3.035   1.170  0.0000  0.0000  0.0000
14700SI     SI114700   9.339   4.690   9.338  0.0000  0.0000  0.0000
14701SI     SI114701   2.749   4.235   8.951  0.0000  0.0000  0.0000
14702SI     SI114702   3.711   6.313   8.849  0.0000  0.0000  0.0000
14703SI     SI114703   9.067   0.847   0.536  0.0000  0.0000  0.0000
14704SI     SI114704   5.525   6.051   9.188  0.0000  0.0000  0.0000
14705SI     SI114705   6.604   6.451   8.389  0.0000  0.0000  0.0000
14706SI     SI114706   8.636   0.387   0.486  0.0000  0.0000  0.0000
14707SI     SI114707   1.828   9.402   8.933  0.0000  0.0000  0.0000
14708SI     SI114708   5.291   5.509   0.314  0.0000  0.0000  0.0000
14709SI     SI114709   2.038   0.420   9.024  0.0000  0.0000  0.0000
14710SI     SI114710   3.917   4.471   8.816  0.0000  0.0000  0.0000
14711SI     SI114711   5.572   3.905   1.122  0.0000  0.0000  0.0000
14712SI     SI114712   9.395   3.648   9.290  0.0000  0.0000  0.0000
14713SI     SI114713   4.172   7.193   9.235  0.0000  0.0000  0.0000
14714SI     SI114714   2.924   6.586   8.464  0.0000  0.0000  0.0000
14715SI     SI114715   7.149   2.929   0.012  0.0000  0.0000  0.0000
14716SI     SI114716   7.668   6.355   0.447  0.0000  0.0000  0.0000
14717SI     SI114717   8.347   0.764   8.614  0.0000  0.0000  0.0000
14718SI     SI114718   1.031   2.344   8.609  0.0000  0.0000  0.0000
14719SI     SI114719   2.800   1.006   0.320  0.0000  0.0000  0.0000
14720SI     SI114720   6.370   0.442   0.385  0.0000  0.0000  0.0000
14721SI     SI114721   1.150   5.265   9.241  0.0000  0.0000  0.0000
14722SI     SI114722   1.865   9.421   8.507  0.0000  0.0000  0.0000
14723SI     SI114723   8.551   8.153   0.757  0.0000  0.0000  0.0000
14724SI     SI114724   0.629   8.214   1.198  0.0000  0.0000  0.0000
14725SI     SI114725   9.279   0.276   8.714  0.0000  0.0000  0.0000
14726SI     SI114726   6.256   0.164   0.297  0.0000  0.0000  0.0000
14727SI     SI114727   8.592   7.145   9.085  0.0000  0.0000  0.0000
14728SI     SI114728   8.075   6.619   0.557  0.0000  0.0000  0.0000
14729SI     SI114729   3.573   0.292   0.625  0.0000  0.0000  0.0000
14730SI     SI114730   9.162   3.606   9.075  0.0000  0.0000  0.0000
14731SI     SI114731   2.599   1.996   9.152  0.0000  0.0000  0.0000
14732SI     SI114732   5.117   6.666   1.050  0.0000  0.0000  0.0000
14733SI     SI114733   2.411   7.038   9.261  0.0000  0.0000  0.0000
14734SI     SI114734   6.997   1.248   0.186  0.0000  0.0000  0.0000
14735SI     SI114735   6.725   7.764   8.504  0.0000  0.0000  0.0000
14736SI     SI114736   4.621   2.473   0.021  0.0000  0.0000  0.0000
14737SI     SI114737   7.666   6.977   8.523  0.0000  0.0000  0.0000
14738SI     SI114738   5.296   5.319   1.077  0.0000  0.0000  0.0000
14739SI     SI114739   6.914   8.170   0.949  0.0000  0.0000  0.0000
14740SI     SI114740   7.507   2.308   0.682  0.0000  0.0000  0.0000
14741SI     SI114741   7.132   8.896   8.408  0.0000  0.0000  0.0000
14742SI     SI114742   0.013   2.532   1.057  0.0000  0.0000  0.0000
14743SI     SI114743   5.260   0.913   9.122  0.0000  0.0000  0.0000
14744SI     SI114744   5.888   5.562   1.032  0.0000  0.0000  0.0000
14745SI     SI114745   0.780   4.965   0.235  0.0000  0.0000  0.0000
14746SI     SI114746   5.659   0.703   0.536  0.0000  0.0000  0.0000
14747SI     SI114747   2.006   5.235   1.127  0.0000  0.0000  0.0000
14748SI     SI114748   5.162   3.418   0.679  0.0000  0.0000  0.0000
14749SI     SI114749   6.681   8.171   9.028  0.0000  0.0000  0.0000
14750SI     SI114750   6.432   3.013   9.233  0.0000  0.0000  0.0000
14751SI     SI114751   9.140   1.911   8.593  0.0000  0.0000  0.0000
14752SI     SI114752   9.093   1.912   0.132  0.0000  0.0000  0.0000
14753SI     SI114753   9.027   3.010   8.519  0.0000  0.0000  0.0000
14754SI     SI114754   0.771   5.112   1.039  0.0000  0.0000  0.0000
14755SI     SI114755   6.141   5.209   0.660  0.0000  0.0000  0.0000
14756SI     SI114756   1.093   2.326   0.978  0.0000  0.0000  0.0000
14757SI     SI114757   1.483   7.906   8.661  0.0000  0.0000  0.0000
14758SI     SI114758   5.647   5.733   1.163  0.0000  0.0000  0.0000
14759SI     SI114759   6.982   4.026   0.227  0.0000  0.0000  0.0000
14760SI     SI114760   1.233   2.864   0.356  0.0000  0.0000  0.0000
14761SI     SI114761   5.059   9.368   8.660  0.0000  0.0000  0.0000
14762SI     SI114762   6.517   1.206   0.218  0.0000  0.0000  0.0000
14763SI     SI114763   2.253   0.573   8.577  0.0000  0.0000  0.0000
14764SI     SI114764   0.136   7.142   9.291  0.0000  0.0000  0.0000
14765SI     SI114765   3.646   9.172   0.499  0.0000  0.0000  0.0000
14766SI     SI114766   6.740   6.013   8.426  0.0000  0.0000  0.0000
14767SI     SI114767   6.420   6.876   9.586  0.0000  0.0000  0.0000
14768SI     SI114768   2.741   7.210   0.572  0.0000  0.0000  0.0000
14769SI     SI114769   2.816   3.361   0.739  0.0000  0.0000  0.0000
14770SI     SI114770   2.012   2.191   9.482  0.0000  0.0000  0.0000
14771SI     SI114771   9.076   1.847   8.896  0.0000  0.0000  0.0000
14772SI     SI114772   1.665   1.639   8.804  0.0000  0.0000  0.0000
14773SI     SI114773   9.452   0.971   1.069  0.0000  0.0000  0.0000
14774SI     SI114774   4.234   3.893   8.341  0.0000  0.0000  0.0000
14775SI     SI114775   7.524   7.281   0.594  0.0000  0.0000  0.0000
14776SI     SI114776   2.587   0.506   0.516  0.0000  0.0000  0.0000
14777SI     SI114777   0.227   1.751   0.187  0.0000  0.0000  0.0000
14778SI     SI114778   7.017   6.028   1.036  0.0000  0.0000  0.0000
14779SI     SI114779   1.497   3.847   1.329  0.0000  0.0000  0.0000
14780SI     SI114780   2.728   5.304   8.491  0.0000  0.0000  0.0000
14781SI     SI114781   4.929   5.548   8.427  0.0000  0.0000  0.0000
14782SI     SI114782   3.959   2.011   9.412  0.0000  0.0000  0.0000
14783SI     SI114783   5.547   1.510   1.212  0.0000  0.0000  0.0000
14784SI     SI114784   3.387   1.937   8.545  0.0000  0.0000  0.0000
14785SI     SI114785   4.903   6.974   8.631  0.0000  0.0000  0.0000
14786SI     SI114786   8.795   9.438   8.342  0.0000  0.0000  0.0000
14787SI     SI114787   7.115   7.613   9.369  0.0000  0.0000  0.0000
14788SI     SI114788   7.986   1.889   0.776  0.0000  0.0000  0.0000
14789SI     SI114789   1.999   5.708   9.472  0.0000  0.0000  0.0000
14790SI     SI114790   0.281   8.199   9.431  0.0000  0.0000  0.0000
14791SI     SI114791   0.288   4.763   0.529  0.0000  0.0000  0.0000
14792SI     SI114792   3.003   7.488   0.777  0.0000  0.0000  0.0000
14793SI     SI114793   0.755   3.614   0.079  0.0000  0.0000  0.0000
14794SI     SI114794   6.594   1.679   8.973  0.0000  0.0000  0.0000
14795SI     SI114795   8.879   0.995   8.303  0.0000  0.0000  0.0000
14796SI     SI114796   1.368   8.076   8.473  0.0000  0.0000  0.0000
14797SI     SI114797   7.526   2.185   1.258  0.0000  0.0000  0.0000
14798SI     SI114798   2.210   5.883   9.324  0.0000  0.0000  0.0000
14799SI     SI114799   8.332   3.110   8.430  0.0000  0.0000  0.0000
14800SI     SI114800   2.182   7.656   9.197  0.0000  0.0000  0.0000
14801SI     SI114801   1.114   4.075   0.283  0.0000  0.0000  0.0000
14802SI     SI114802   6.477   9.325   9.016  0.0000  0.0000  0.0000
14803SI     SI114803   1.052   0.359   8.539  0.0000  0.0000  0.0000
14804SI     SI114804   8.377   2.046   9.446  0.0000  0.0000  0.0000
14805SI     SI114805   9.430   9.068   8.786  0.0000  0.0000  0.0000
14806SI     SI114806   7.051   0.909   9.440  0.0000  0.0000  0.0000
14807SI     SI114807   1.604   8.648   0.474  0.0000  0.0000  0.0000
14808SI     SI114808   0.597   9.577   0.381  0.0000  0.0000  0.0000
14809SI     SI114809   3.029   7.185   8.506  0.0000  0.0000  0.0000
14810SI     SI114810   4.086   8.225   0.800  0.0000  0.0000  0.0000
14811SI     SI114811   3.292   1.769   0.092  0.0000  0.0000  0.0000
14812SI     SI114812   7.328   3.898   9.202  0.0000  0.0000  0.0000
14813SI     SI114813   0.749   5.480   0.607  0.0000  0.0000  0.0000
14814SI     SI114814   8.642   9.501   1.065  0.0000  0.0000  0.0000
14815SI     SI114815   7.632   1.083   1.173  0.0000  0.0000  0.0000
14816SI     SI114816   2.030   3.387   0.320  0.0000  0.0000  0.0000
14817SI     SI114817   0.425   2.899   9.386  0.0000  0.0000  0.0000
14818SI     SI114818   3.757   9.051   8.546  0.0000  0.0000  0.0000
14819SI     SI114819   1.086   7.244   0.022  0.0000  0.0000  0.0000
14820SI     SI114820   2.972   0.147   8.431  0.0000  0.0000  0.0000
14821SI     SI114821   1.082   8.296   0.696  0.0000  0.0000  0.0000
14822SI     SI114822   3.036   0.979   9.493  0.0000  0.0000  0.0000
14823SI     SI114823   5.337   7.497   8.752  0.0000  0.0000  0.0000
14824SI     SI114824   1.712   3.740   0.635  0.0000  0.0000  0.0000
14825SI     SI114825   4.388   1.550   0.840  0.0000  0.0000  0.0000
14826SI     SI114826   3.052   6.937   8.998  0.0000  0.0000  0.0000
14827SI     SI114827   4.394   0.211   0.619  0.0000  0.0000  0.0000
14828SI     SI114828   5.882   3.980   8.662  0.0000  0.0000  0.0000
14829SI     SI114829   7.702   8.657   8.680  0.0000  0.0000  0.0000
14830SI     SI114830   7.924   1.675   0.974  0.0000  0.0000  0.0000
14831SI     SI114831   4.541   8.136   0.509  0.0000  0.0000  0.0000
14832SI     SI114832   1.332   6.798   0.616  0.0000  0.0000  0.0000
14833SI     SI114833   2.286   6.271   8.775  0.0000  0.0000  0.0000
14834SI     SI114834   6.269   6.645   0.124  0.0000  0.0000  0.0000
14835SI     SI114835   6.155   5.502   0.681  0.0000  0.0000  0.0000
14836SI     SI114836   4.103   7.599   0.136  0.0000  0.0000  0.0000
14837SI     SI114837   0.495   9.395   0.759  0.0000  0.0000  0.0000
14838SI     SI114838   2.798   4.942   1.076  0.0000  0.0000  0.0000
14839SI     SI114839   6.133   3.370   9.096  0.0000  0.0000  0.0000
14840SI     SI114840   1.225   8.105   9.356  0.0000  0.0000  0.0000
14841SI     SI114841   1.909   8.539   0.958  0.0000  0.0000  0.0000
14842SI     SI114842   5.083   2.599   0.259  0.0000  0.0000  0.0000
14843SI     SI114843   5.718   6.500   9.156  0.0000  0.0000  0.0000
14844SI     SI114844   4.215   0.593   0.535  0.0000  0.0000  0.0000
14845SI     SI114845   2.752   2.534   9.261  0.0000  0.0000  0.0000
14846SI     SI114846   9.202   6.754   0.300  0.0000  0.0000  0.0000
14847SI     SI114847   4.020   0.218   0.149  0.0000  0.0000  0.0000
14848SI     SI114848   6.744   3.158   1.125  0.0000  0.0000  0.0000
14849SI     SI114849   4.464   6.670   8.717  0.0000  0.0000  0.0000
14850SI     SI114850   7.934   1.119   0.382  0.0000  0.0000  0.0000
14851SI     SI114851   2.887   3.672   1.264  0.0000  0.0000  0.0000
14852SI     SI114852   1.242   5.506   9.548  0.0000  0.0000  0.0000
14853SI     SI114853   6.878   0.771   8.816  0.0000  0.0000  0.0000
14854SI     SI114854   6.566   2.640   8.353  0.0000  0.0000  0.0000
14855SI     SI114855   2.952   9.501   8.821  0.0000  0.0000  0.0000
14856SI     SI114856   7.548   8.433   9.347  0.0000  0.0000  0.0000
14857SI     SI114857   6.946   3.727   1.142  0.0000  0.0000  0.0000
14858SI     SI114858   6.098   6.684   8.889  0.0000  0.0000  0.0000
14859SI     SI114859   2.852   1.167   8.492  0.0000  0.0000  0.0000
14860SI     SI114860   5.644   0.150   8.813  0.0000  0.0000  0.0000
14861SI     SI114861   5.174   2.272   9.366  0.0000  0.0000  0.0000
14862SI     SI114862   2.678   5.074   0.534  0.0000  0.0000  0.0000
14863SI     SI114863   4.056   6.570   8.715  0.0000  0.0000  0.0000
14864SI     SI114864   7.178   4.949   8.802  0.0000  0.0000  0.0000
14865SI     SI114865   3.455   6.270   0.402  0.0000  0.0000  0.0000
14866SI     SI114866   7.821   7.575   9.077  0.0000  0.0000  0.0000
14867SI     SI114867   8.135   1.231   0.977  0.0000  0.0000  0.0000
14868SI     SI114868   2.840   9.486   8.309  0.0000  0.0000  0.0000
14869SI     SI114869   7.349   7.532   9.529  0.0000  0.0000  0.0000
14870SI     SI114870   6.710   3.016   9.381  0.0000  0.0000  0.0000
14871SI     SI114871   4.698   2.944   9.281  0.0000  0.0000  0.0000
14872SI     SI114872   2.502   0.962   8.240  0.0000  0.0000  0.0000
14873SI     SI114873   8.699   5.079   9.513  0.0000  0.0000  0.0000
14874SI     SI114874   4.482   4.817   1.204  0.0000  0.0000  0.0000
14875SI     SI114875   7.814   0.855   0.448  0.0000  0.0000  0.0000
14876SI     SI114876   3.469   9.386   8.825  0.0000  0.0000  0.0000
14877SI     SI114877   0.130   4.331   9.394  0.0000  0.0000  0.0000
14878SI     SI114878   6.158   7.806   0.403  0.0000  0.0000  0.0000
14879SI     SI114879   8.158   7.769   8.709  0.0000  0.0000  0.0000
14880SI     SI114880   3.867   7.206   0.024  0.0000  0.0000  0.0000
14881SI     SI114881   1.168   0.731   0.044  0.0000  0.0000  0.0000
14882SI     SI114882   1.493   0.690   8.661  0.0000  0.0000  0.0000
14883SI     SI114883   6.019   7.513   0.735  0.0000  0.0000  0.0000
14884SI     SI114884   1.743   4.938   0.378  0.0000  0.0000  0.0000
14885SI     SI114885   8.840   2.514   0.959  0.0000  0.0000  0.0000
14886SI     SI114886   4.656   3.929   9.183  0.0000  0.0000  0.0000
14887SI     SI114887   5.575   5.337   8.643  0.0000  0.0000  0.0000
14888SI     SI114888   5.445   8.469   0.555  0.0000  0.0000  0.0000
14889SI     SI114889   1.418   8.732   0.266  0.0000  0.0000  0.0000
14890SI     SI114890   9.162   9.235   0.033  0.0000  0.0000  0.0000
14891SI     SI114891   0.766   3.116   0.028  0.0000  0.0000  0.0000
14892SI     SI114892   8.962   8.965   9.277  0.0000  0.0000  0.0000
14893SI     SI114893   5.065   0.952   0.865  0.0000  0.0000  0.0000
14894SI     SI114894   7.730   3.139   8.598  0.0000  0.0000  0.0000
14895SI     SI114895   4.383   5.254   1.151  0.0000  0.0000  0.0000
14896SI     SI114896   6.467   4.181   9.046  0.0000  0.0000  0.0000
14897SI     SI114897   4.878   8.193   0.165  0.0000  0.0000  0.0000
14898SI     SI114898   1.518   6.523   9.269  0.0000  0.0000  0.0000
14899SI     SI114899   6.325   1.456   8.605  0.0000  0.0000  0.0000
14900SI     SI114900   6.207   4.601   1.175  0.0000  0.0000  0.0000
14901SI     SI114901   0.228   4.162   1.008  0.0000  0.0000  0.0000
14902SI     SI114902   0.143   3.711   8.808  0.0000  0.0000  0.0000
14903SI     SI114903   2.376   7.715   0.429  0.0000  0.0000  0.0000
14904SI     SI114904   8.159   8.509   8.618  0.0000  0.0000  0.0000
14905SI     SI114905   3.337   5.901   0.669  0.0000  0.0000  0.0000
14906SI     SI114906   3.761   2.995   0.119  0.0000  0.0000  0.0000
14907SI     SI114907   5.477   4.362   8.869  0.0000  0.0000  0.0000
14908SI     SI114908   0.963   5.172   9.015  0.0000  0.0000  0.0000
14909SI     SI114909   1.293   0.439   0.777  0.0000  0.0000  0.0000
14910SI     SI114910   0.088   7.422   9.427  0.0000  0.0000  0.0000
14911SI     SI114911   5.693   0.702   9.526  0.0000  0.0000  0.0000
14912SI     SI114912   0.085   0.807   0.279  0.0000  0.0000  0.0000
14913SI     SI114913   6.541   4.796   9.196  0.0000  0.0000  0.0000
14914SI     SI114914   0.791   6.217   1.233  0.0000  0.0000  0.0000
14915SI     SI114915   5.566   1.033   0.136  0.0000  0.0000  0.0000
14916SI     SI114916   8.332   0.391   9.580  0.0000  0.0000  0.0000
14917SI     SI114917   0.190   8.115   9.136  0.0000  0.0000  0.0000
14918SI     SI114918   8.685   7.285   8.621  0.0000  0.0000  0.0000
14919SI     SI114919   8.803   7.278   0.416  0.0000  0.0000  0.0000
14920SI     SI114920   3.733   8.523   1.097  0.0000  0.0000  0.0000
14921SI     SI114921   1.312   4.305   8.704  0.0000  0.0000  0.0000
14922SI     SI114922   2.118   6.298   0.104  0.0000  0.0000  0.0000
14923SI     SI114923   5.511   5.712   0.224  0.0000  0.0000  0.0000
14924SI     SI114924   6.557   5.941   0.919  0.0000  0.0000  0.0000
14925SI     SI114925   3.710   9.199   8.805  0.0000  0.0000  0.0000
14926SI     SI114926   2.155   1.852   0.185  0.0000  0.0000  0.0000
14927SI     SI114927   3.730   1.812   9.334  0.0000  0.0000  0.0000
14928SI     SI114928   8.231   4.423   8.213  0.0000  0.0000  0.0000
14929SI     SI114929   0.672   8.196   9.213  0.0000  0.0000  0.0000
14930SI     SI114930   8.055   4.150   8.926  0.0000  0.0000  0.0000
14931SI     SI114931   6.968   0.656   0.379  0.0000  0.0000  0.0000
14932SI     SI114932   2.002   4.570   0.381  0.0000  0.0000  0.0000
14933SI     SI114933   2.288   1.574   1.227  0.0000  0.0000  0.0000
14934SI     SI114934   8.484   8.779   8.812  0.0000  0.0000  0.0000
14935SI     SI114935   1.589   2.420   9.161  0.0000  0.0000  0.0000
14936SI     SI114936   1.416   0.363   0.319  0.0000  0.0000  0.0000
14937SI     SI114937   4.416   3.117   0.379  0.0000  0.0000  0.0000
14938SI     SI114938   1.337   5.874   8.869  0.0000  0.0000  0.0000
14939SI     SI114939   9.298   7.990   8.620  0.0000  0.0000  0.0000
14940SI     SI114940   8.636   1.155   8.420  0.0000  0.0000  0.0000
14941SI     SI114941   7.583   9.416   8.711  0.0000  0.0000  0.0000
14942SI     SI114942   0.625   2.345   1.232  0.0000  0.0000  0.0000
14943SI     SI114943   2.781   7.395   0.009  0.0000  0.0000  0.0000
14944SI     SI114944   7.654   2.539   8.410  0.0000  0.0000  0.0000
14945SI     SI114945   3.949   2.551   8.802  0.0000  0.0000  0.0000
14946SI     SI114946   6.497   4.204   1.374  0.0000  0.0000  0.0000
14947SI     SI114947   0.802   6.215   8.645  0.0000  0.0000  0.0000
14948SI     SI114948   6.792   5.420   0.007  0.0000  0.0000  0.0000
14949SI     SI114949   0.720   6.459   9.072  0.0000  0.0000  0.0000
14950SI     SI114950   0.946   7.752   0.034  0.0000  0.0000  0.0000
14951SI     SI114951   6.130   0.917   8.410  0.0000  0.0000  0.0000
14952SI     SI114952   4.276   8.108   9.186  0.0000  0.0000  0.0000
14953SI     SI114953   2.440   0.756   8.962  0.0000  0.0000  0.0000
14954SI     SI114954   1.530   9.243   1.173  0.0000  0.0000  0.0000
14955SI     SI114955   2.035   1.811   8.533  0.0000  0.0000  0.0000
14956SI     SI114956   2.934   3.114   0.853  0.0000  0.0000  0.0000
14957SI     SI114957   8.440   2.090   0.521  0.0000  0.0000  0.0000
14958SI     SI114958   7.417   0.597   8.247  0.0000  0.0000  0.0000
14959SI     SI114959   2.076   2.799   0.533  0.0000  0.0000  0.0000
14960SI     SI114960   6.687   8.508   8.769  0.0000  0.0000  0.0000
14961SI     SI114961   7.312   7.966   0.695  0.0000  0.0000  0.0000
14962SI     SI114962   0.166   8.063   0.507  0.0000  0.0000  0.0000
14963SI     SI114963   3.375   2.183   0.274  0.0000  0.0000  0.0000
14964SI     SI114964   8.746   3.881   0.375  0.0000  0.0000  0.0000
14965SI     SI114965   4.410   4.011   1.258  0.0000  0.0000  0.0000
14966SI     SI114966   3.078   1.163   0.306  0.0000  0.0000  0.0000
14967SI     SI114967   0.037   8.352   8.711  0.0000  0.0000  0.0000
14968SI     SI114968   3.690   6.984   0.128  0.0000  0.0000  0.0000
14969SI     SI114969   5.028   7.598   0.549  0.0000  0.0000  0.0000
14970SI     SI114970   2.240   3.522   8.544  0.0000  0.0000  0.0000
14971SI     SI114971   8.550   2.275   9.376  0.0000  0.0000  0.0000
14972SI     SI114972   6.392   5.637   8.529  0.0000  0.0000  0.0000
14973SI     SI114973   1.234   3.434   0.516  0.0000  0.0000  0.0000
14974SI     SI114974   1.566   8.561   0.049  0.0000  0.0000  0.0000
14975SI     SI114975   1.146   4.561   9.056  0.0000  0.0000  0.0000
14976SI     SI114976   6.652   0.872   0.924  0.0000  0.0000  0.0000
14977SI     SI114977   5.120   0.689   8.718  0.0000  0.0000  0.0000
14978SI     SI114978   8.290   2.689   1.061  0.0000  0.0000  0.0000
14979SI     SI114979   5.121   5.166   0.634  0.0000  0.0000  0.0000
14980SI     SI114980   6.353   9.546   0.486  0.0000  0.0000  0.0000
14981SI     SI114981   2.880   7.460   8.474  0.0000  0.0000  0.0000
14982SI     SI114982   2.217   9.372   1.071  0.0000  0.0000  0.0000
14983SI     SI114983   7.135   7.389   0.307  0.0000  0.0000  0.0000
14984SI     SI114984   8.426   4.834   1.159  0.0000  0.0000  0.0000
14985SI     SI114985   4.989   1.307   9.123  0.0000  0.0000  0.0000
14986SI     SI114986   3.474   5.160   0.796  0.0000  0.0000  0.0000
14987SI     SI114987   6.108   6.583   0.371  0.0000  0.0000  0.0000
14988SI     SI114988   6.349   4.753   8.468  0.0000  0.0000  0.0000
14989SI     SI114989   7.838   4.952   9.291  0.0000  0.0000  0.0000
14990SI     SI114990   5.956   3.908   8.956  0.0000  0.0000  0.0000
14991SI     SI114991   1.810   0.745   9.144  0.0000  0.0000  0.0000
14992SI     SI114992   5.386   7.218   8.866  0.0000  0.0000  0.0000
14993SI     SI114993   2.181   7.227   1.224  0.0000  0.0000  0.0000
14994SI     SI114994   0.696   5.934   0.876  0.0000  0.0000  0.0000
14995SI     SI114995   9.472   3.654   0.434  0.0000  0.0000  0.0000
14996SI     SI114996   8.457   7.302   8.847  0.0000  0.0000  0.0000
14997SI     SI114997   3.616   7.475   0.390  0.0000  0.0000  0.0000
14998SI     SI114998   5.380   4.549   0.417  0.0000  0.0000  0.0000
14999SI     SI114999   1.701   1.772   9.481  0.0000  0.0000  0.0000
15000SI     SI115000   0.765   5.050   8.466  0.0000  0.0000  0.0000
15001SI     SI115001   3.465   5.186   9.117  0.0000  0.0000  0.0000
15002SI     SI115002   3.629   8.035   9.571  0.0000  0.0000  0.0000
15003SI     SI115003   2.052   4.971   0.758  0.0000  0.0000  0.0000
15004SI     SI115004   3.072   8.658   8.756  0.0000  0.0000  0.0000
15005SI     SI115005   1.528   2.158   8.736  0.0000  0.0000  0.0000
15006SI     SI115006   3.781   3.361   8.447  0.0000  0.0000  0.0000
15007SI     SI115007   8.690   7.565   0.448  0.0000  0.0000  0.0000
15008SI     SI115008   1.450   1.006   0.701  0.0000  0.0000  0.0000
15009SI     SI115009   5.346   2.475   0.750  0.0000  0.0000  0.0000
15010SI     SI115010   3.440   3.297   0.381  0.0000  0.0000  0.0000
15011SI     SI115011   5.311   1.901   0.064  0.0000  0.0000  0.0000
15012SI     SI115012   8.222   3.293   1.237  0.0000  0.0000  0.0000
15013SI     SI115013   2.467   7.278   9.061  0.0000  0.0000  0.0000
15014SI     SI115014   7.553   1.826   9.399  0.0000  0.0000  0.0000
15015SI     SI115015   2.464   3.508   0.511  0.0000  0.0000  0.0000
15016SI     SI115016   2.023   2.070   0.363  0.0000  0.0000  0.0000
15017SI     SI115017   7.617   2.749   0.179  0.0000  0.0000  0.0000
15018SI     SI115018   0.507   3.546   0.564  0.0000  0.0000  0.0000
15019SI     SI115019   3.347   6.919   8.937  0.0000  0.0000  0.0000
15020SI     SI115020   8.810   7.841   0.832  0.0000  0.0000  0.0000
15021SI     SI115021   7.264   4.375   9.047  0.0000  0.0000  0.0000
15022SI     SI115022   2.647   8.242   0.003  0.0000  0.0000  0.0000
15023SI     SI115023   2.637   0.735   9.451  0.0000  0.0000  0.0000
15024SI     SI115024   2.882   8.701   9.011  0.0000  0.0000  0.0000
15025SI     SI115025   1.297   0.885   0.449  0.0000  0.0000  0.0000
15026SI     SI115026   3.974   3.493   8.623  0.0000  0.0000  0.0000
15027SI     SI115027   7.785   2.863   0.930  0.0000  0.0000  0.0000
15028SI     SI115028   9.421   1.557   8.360  0.0000  0.0000  0.0000
15029SI     SI115029   2.232   1.436   0.954  0.0000  0.0000  0.0000
15030SI     SI115030   5.674   3.862   9.040  0.0000  0.0000  0.0000
15031SI     SI115031   8.239   7.346   0.157  0.0000  0.0000  0.0000
15032SI     SI115032   0.710   1.181   1.116  0.0000  0.0000  0.0000
15033SI     SI115033   6.264   9.508   0.965  0.0000  0.0000  0.0000
15034SI     SI115034   7.137   6.491   1.243  0.0000  0.0000  0.0000
15035SI     SI115035   8.705   9.279   9.587  0.0000  0.0000  0.0000
15036SI     SI115036   8.751   4.888   0.385  0.0000  0.0000  0.0000
15037SI     SI115037   5.217   3.218   0.915  0.0000  0.0000  0.0000
15038SI     SI115038   4.078   1.284   1.100  0.0000  0.0000  0.0000
15039SI     SI115039   2.617   7.492   1.311  0.0000  0.0000  0.0000
15040SI     SI115040   8.490   1.128   9.431  0.0000  0.0000  0.0000
15041SI     SI115041   2.532   1.227   0.709  0.0000  0.0000  0.0000
15042SI     SI115042   3.417   3.725   1.115  0.0000  0.0000  0.0000
15043SI     SI115043   1.189   0.871   8.527  0.0000  0.0000  0.0000
15044SI     SI115044   0.799   5.661   0.038  0.0000  0.0000  0.0000
15045SI     SI115045   4.890   2.393   9.308  0.0000  0.0000  0.0000
15046SI     SI115046   0.820   0.524   0.838  0.0000  0.0000  0.0000
15047SI     SI115047   6.417   0.430   9.284  0.0000  0.0000  0.0000
15048SI     SI115048   7.660   1.075   0.005  0.0000  0.0000  0.0000
15049SI     SI115049   4.803   3.229   1.086  0.0000  0.0000  0.0000
15050SI     SI115050   0.931   2.228   9.349  0.0000  0.0000  0.0000
15051SI     SI115051   0.190   1.951   9.123  0.0000  0.0000  0.0000
15052SI     SI115052   1.545   3.770   0.873  0.0000  0.0000  0.0000
15053SI     SI115053   3.376   3.085   0.597  0.0000  0.0000  0.0000
15054SI     SI115054   2.928   9.399   0.704  0.0000  0.0000  0.0000
15055SI     SI115055   5.924   0.305   8.798  0.0000  0.0000  0.0000
15056SI     SI115056   5.192   3.101   9.218  0.0000  0.0000  0.0000
15057SI     SI115057   1.437   4.678   9.047  0.0000  0.0000  0.0000
15058SI     SI115058   5.049   3.553   9.145  0.0000  0.0000  0.0000
15059SI     SI115059   1.978   3.159   0.860  0.0000  0.0000  0.0000
15060SI     SI115060   8.578   7.759   0.645  0.0000  0.0000  0.0000
15061SI     SI115061   0.248   2.035   0.071  0.0000  0.0000  0.0000
15062SI     SI115062   7.234   5.086   1.203  0.0000  0.0000  0.0000
15063SI     SI115063   7.642   2.056   8.902  0.0000  0.0000  0.0000
15064SI     SI115064   6.607   3.136   8.774  0.0000  0.0000  0.0000
15065SI     SI115065   6.666   9.019   8.599  0.0000  0.0000  0.0000
15066SI     SI115066   1.863   5.527   8.677  0.0000  0.0000  0.0000
15067SI     SI115067   4.462   0.085   9.099  0.0000  0.0000  0.0000
15068SI     SI115068   4.522   8.629   0.962  0.0000  0.0000  0.0000
15069SI     SI115069   0.084   2.364   8.504  0.0000  0.0000  0.0000
15070SI     SI115070   2.147   6.254   0.831  0.0000  0.0000  0.0000
15071SI     SI115071   5.476   7.195   1.368  0.0000  0.0000  0.0000
15072SI     SI115072   2.975   2.122   8.844  0.0000  0.0000  0.0000
15073SI     SI115073   4.354   1.068   9.152  0.0000  0.0000  0.0000
15074SI     SI115074   6.154   5.764   0.015  0.0000  0.0000  0.0000
15075SI     SI115075   7.171   1.975   0.211  0.0000  0.0000  0.0000
15076SI     SI115076   3.641   5.974   0.688  0.0000  0.0000  0.0000
15077SI     SI115077   0.548   1.093   0.290  0.0000  0.0000  0.0000
15078SI     SI115078   9.233   0.216   0.164  0.0000  0.0000  0.0000
15079SI     SI115079   1.155   8.805   9.478  0.0000  0.0000  0.0000
15080SI     SI115080   9.295   1.420   8.916  0.0000  0.0000  0.0000
15081SI     SI115081   0.654   2.440   8.956  0.0000  0.0000  0.0000
15082SI     SI115082   0.778   6.471   0.883  0.0000  0.0000  0.0000
15083SI     SI115083   0.539   7.763   0.343  0.0000  0.0000  0.0000
15084SI     SI115084   2.813   4.961   0.273  0.0000  0.0000  0.0000
15085SI     SI115085   4.074   5.691   1.160  0.0000  0.0000  0.0000
15086SI     SI115086   0.268   2.135   1.061  0.0000  0.0000  0.0000
15087SI     SI115087   9.511   4.704   9.602  0.0000  0.0000  0.0000
15088SI     SI115088   3.500   7.719   8.815  0.0000  0.0000  0.0000
15089SI     SI115089   2.310   3.434   9.114  0.0000  0.0000  0.0000
15090SI     SI115090   0.340   2.183   8.474  0.0000  0.0000  0.0000
15091SI     SI115091   1.425   8.357   8.563  0.0000  0.0000  0.0000
15092SI     SI115092   2.504   4.114   9.104  0.0000  0.0000  0.0000
15093SI     SI115093   1.816   9.026   0.102  0.0000  0.0000  0.0000
15094SI     SI115094   6.307   7.077   0.464  0.0000  0.0000  0.0000
15095SI     SI115095   6.390   1.520   9.491  0.0000  0.0000  0.0000
15096SI     SI115096   9.369   7.249   8.961  0.0000  0.0000  0.0000
15097SI     SI115097   7.894   3.999   9.459  0.0000  0.0000  0.0000
15098SI     SI115098   8.673   3.139   0.435  0.0000  0.0000  0.0000
15099SI     SI115099   7.582   3.125   9.565  0.0000  0.0000  0.0000
15100SI     SI115100   4.216   2.576   9.407  0.0000  0.0000  0.0000
15101SI     SI115101   7.894   7.862   9.196  0.0000  0.0000  0.0000
15102SI     SI115102   3.272   6.321   9.133  0.0000  0.0000  0.0000
15103SI     SI115103   4.793   6.180   9.269  0.0000  0.0000  0.0000
15104SI     SI115104   3.943   0.739   0.577  0.0000  0.0000  0.0000
15105SI     SI115105   7.399   4.144   9.382  0.0000  0.0000  0.0000
15106SI     SI115106   1.620   4.153   8.992  0.0000  0.0000  0.0000
15107SI     SI115107   7.862   7.408   8.652  0.0000  0.0000  0.0000
15108SI     SI115108   1.311   2.108   8.959  0.0000  0.0000  0.0000
15109SI     SI115109   6.012   2.869   0.477  0.0000  0.0000  0.0000
15110SI     SI115110   0.026   6.385   9.369  0.0000  0.0000  0.0000
15111SI     SI115111   8.622   0.814   8.683  0.0000  0.0000  0.0000
15112SI     SI115112   3.901   4.234   8.622  0.0000  0.0000  0.0000
15113SI     SI115113   4.753   8.357   9.255  0.0000  0.0000  0.0000
15114SI     SI115114   9.428   0.705   0.930  0.0000  0.0000  0.0000
15115SI     SI115115   8.164   2.465   0.403  0.0000  0.0000  0.0000
15116SI     SI115116   4.242   7.882   8.538  0.0000  0.0000  0.0000
15117SI     SI115117   1.939   3.674   0.295  0.0000  0.0000  0.0000
15118SI     SI115118   6.385   4.437   8.896  0.0000  0.0000  0.0000
15119SI     SI115119   6.644   0.228   9.555  0.0000  0.0000  0.0000
15120SI     SI115120   4.203   2.599   1.126  0.0000  0.0000  0.0000
15121SI     SI115121   7.778   9.187   8.814  0.0000  0.0000  0.0000
15122SI     SI115122   5.076   1.071   9.308  0.0000  0.0000  0.0000
15123SI     SI115123   2.352   0.085   0.397  0.0000  0.0000  0.0000
15124SI     SI115124   8.139   5.181   1.182  0.0000  0.0000  0.0000
15125SI     SI115125   2.177   2.853   8.270  0.0000  0.0000  0.0000
15126SI     SI115126   4.398   3.933   0.491  0.0000  0.0000  0.0000
15127SI     SI115127   2.265   2.551   0.481  0.0000  0.0000  0.0000
15128SI     SI115128   3.240   8.467   0.020  0.0000  0.0000  0.0000
15129SI     SI115129   4.356   8.873   9.282  0.0000  0.0000  0.0000
15130SI     SI115130   3.654   0.758   8.631  0.0000  0.0000  0.0000
15131SI     SI115131   9.566   5.667   8.741  0.0000  0.0000  0.0000
15132SI     SI115132   2.572   6.744   1.003  0.0000  0.0000  0.0000
15133SI     SI115133   1.463   3.081   0.805  0.0000  0.0000  0.0000
15134SI     SI115134   0.911   3.522   8.444  0.0000  0.0000  0.0000
15135SI     SI115135   5.885   7.341   8.735  0.0000  0.0000  0.0000
15136SI     SI115136   0.674   6.181   9.196  0.0000  0.0000  0.0000
15137SI     SI115137   4.348   3.628   8.834  0.0000  0.0000  0.0000
15138SI     SI115138   5.749   2.772   9.042  0.0000  0.0000  0.0000
15139SI     SI115139   1.598   8.826   8.551  0.0000  0.0000  0.0000
15140SI     SI115140   3.584   8.455   0.315  0.0000  0.0000  0.0000
15141SI     SI115141   8.404   6.001   9.538  0.0000  0.0000  0.0000
15142SI     SI115142   0.037   5.883   0.491  0.0000  0.0000  0.0000
15143SI     SI115143   8.842   4.736   9.131  0.0000  0.0000  0.0000
15144SI     SI115144   1.474   4.725   9.567  0.0000  0.0000  0.0000
15145SI     SI115145   1.530   8.986   1.331  0.0000  0.0000  0.0000
15146SI     SI115146   8.192   5.248   0.505  0.0000  0.0000  0.0000
15147SI     SI115147   6.760   2.675   0.183  0.0000  0.0000  0.0000
15148SI     SI115148   2.356   4.139   8.643  0.0000  0.0000  0.0000
15149SI     SI115149   4.630   6.318   0.219  0.0000  0.0000  0.0000
15150SI     SI115150   3.052   8.760   9.274  0.0000  0.0000  0.0000
15151SI     SI115151   4.383   9.268   8.883  0.0000  0.0000  0.0000
15152SI     SI115152   8.191   4.572   8.906  0.0000  0.0000  0.0000
15153SI     SI115153   7.406   9.228   8.552  0.0000  0.0000  0.0000
15154SI     SI115154   8.558   9.305   8.759  0.0000  0.0000  0.0000
15155SI     SI115155   5.160   2.816   9.113  0.0000  0.0000  0.0000
15156SI     SI115156   2.495   4.808   9.288  0.0000  0.0000  0.0000
15157SI     SI115157   0.893   1.248   8.713  0.0000  0.0000  0.0000
15158SI     SI115158   1.397   2.910   9.344  0.0000  0.0000  0.0000
15159SI     SI115159   0.692   0.631   9.492  0.0000  0.0000  0.0000
15160SI     SI115160   3.671   9.185   9.231  0.0000  0.0000  0.0000
15161SI     SI115161   2.050   5.694   0.850  0.0000  0.0000  0.0000
15162SI     SI115162   2.847   8.404   9.448  0.0000  0.0000  0.0000
15163SI     SI115163   0.721   7.054   1.074  0.0000  0.0000  0.0000
15164SI     SI115164   7.782   6.971   0.011  0.0000  0.0000  0.0000
15165SI     SI115165   5.779   6.673   0.990  0.0000  0.0000  0.0000
15166SI     SI115166   7.124   5.728   1.065  0.0000  0.0000  0.0000
15167SI     SI115167   2.481   7.705   9.288  0.0000  0.0000  0.0000
15168SI     SI115168   4.318   8.540   0.622  0.0000  0.0000  0.0000
15169SI     SI115169   4.868   3.493   0.660  0.0000  0.0000  0.0000
15170SI     SI115170   4.552   8.743   9.087  0.0000  0.0000  0.0000
15171SI     SI115171   9.494   7.485   0.264  0.0000  0.0000  0.0000
15172SI     SI115172   7.231   6.802   9.088  0.0000  0.0000  0.0000
15173SI     SI115173   1.543   8.345   0.431  0.0000  0.0000  0.0000
15174SI     SI115174   1.426   3.896   8.995  0.0000  0.0000  0.0000
15175SI     SI115175   9.557   5.514   9.014  0.0000  0.0000  0.0000
15176SI     SI115176   4.386   2.644   8.945  0.0000  0.0000  0.0000
15177SI     SI115177   2.547   4.015   8.155  0.0000  0.0000  0.0000
15178SI     SI115178   4.209   3.564   1.371  0.0000  0.0000  0.0000
15179SI     SI115179   3.827   4.181   9.605  0.0000  0.0000  0.0000
15180SI     SI115180   5.174   9.281   1.321  0.0000  0.0000  0.0000
15181SI     SI115181   2.725   7.984   0.095  0.0000  0.0000  0.0000
15182SI     SI115182   2.324   2.363   8.961  0.0000  0.0000  0.0000
15183SI     SI115183   8.866   6.469   0.397  0.0000  0.0000  0.0000
15184SI     SI115184   6.807   1.661   9.187  0.0000  0.0000  0.0000
15185SI     SI115185   0.560   8.455   0.507  0.0000  0.0000  0.0000
15186SI     SI115186   0.504   8.644   0.971  0.0000  0.0000  0.0000
15187SI     SI115187   1.233   0.602   8.796  0.0000  0.0000  0.0000
15188SI     SI115188   8.648   8.926   0.648  0.0000  0.0000  0.0000
15189SI     SI115189   2.141   7.433   8.723  0.0000  0.0000  0.0000
15190SI     SI115190   0.527   0.560   0.756  0.0000  0.0000  0.0000
15191SI     SI115191   8.894   8.262   9.062  0.0000  0.0000  0.0000
15192SI     SI115192   7.895   0.594   0.616  0.0000  0.0000  0.0000
15193SI     SI115193   4.229   7.712   8.798  0.0000  0.0000  0.0000
15194SI     SI115194   1.943   7.567   0.563  0.0000  0.0000  0.0000
15195SI     SI115195   7.982   8.261   8.946  0.0000  0.0000  0.0000
15196SI     SI115196   6.112   4.635   0.883  0.0000  0.0000  0.0000
15197SI     SI115197   6.247   2.363   8.737  0.0000  0.0000  0.0000
15198SI     SI115198   0.435   3.079   1.344  0.0000  0.0000  0.0000
15199SI     SI115199   4.596   8.200   0.048  0.0000  0.0000  0.0000
15200SI     SI115200   1.867   7.157   0.044  0.0000  0.0000  0.0000
15201SI     SI115201   1.535   4.880   1.128  0.0000  0.0000  0.0000
15202SI     SI115202   2.655   8.876   8.678  0.0000  0.0000  0.0000
15203SI     SI115203   8.107   4.406   9.376  0.0000  0.0000  0.0000
15204SI     SI115204   1.034   0.978   8.303  0.0000  0.0000  0.0000
15205SI     SI115205   5.013   1.421   8.552  0.0000  0.0000  0.0000
15206SI     SI115206   5.663   7.862   0.813  0.0000  0.0000  0.0000
15207SI     SI115207   3.396   0.476   8.907  0.0000  0.0000  0.0000
15208SI     SI115208   5.375   6.762   0.706  0.0000  0.0000  0.0000
15209SI     SI115209   3.073   5.322   0.732  0.0000  0.0000  0.0000
15210SI     SI115210   3.993   2.626   1.336  0.0000  0.0000  0.0000
15211SI     SI115211   4.200   3.132   8.767  0.0000  0.0000  0.0000
15212SI     SI115212   5.441   7.021   8.622  0.0000  0.0000  0.0000
15213SI     SI115213   0.859   2.487   0.358  0.0000  0.0000  0.0000
15214SI     SI115214   8.725   0.157   8.755  0.0000  0.0000  0.0000
15215SI     SI115215   5.671   5.035   9.449  0.0000  0.0000  0.0000
15216SI     SI115216   9.529   2.825   8.607  0.0000  0.0000  0.0000
15217SI     SI115217   5.456   7.812   0.359  0.0000  0.0000  0.0000
15218SI     SI115218   0.670   7.681   9.188  0.0000  0.0000  0.0000
15219SI     SI115219   6.429   0.586   9.025  0.0000  0.0000  0.0000
15220SI     SI115220   6.605   5.811   0.301  0.0000  0.0000  0.0000
15221SI     SI115221   4.263   1.074   9.456  0.0000  0.0000  0.0000
15222SI     SI115222   2.758   4.240   8.496  0.0000  0.0000  0.0000
15223SI     SI115223   5.586   7.195   0.679  0.0000  0.0000  0.0000
15224SI     SI115224   9.052   4.826   9.310  0.0000  0.0000  0.0000
15225SI     SI115225   0.800   8.895   0.298  0.0000  0.0000  0.0000
15226SI     SI115226   0.497   4.975   0.965  0.0000  0.0000  0.0000
15227SI     SI115227   4.211   4.591   0.450  0.0000  0.0000  0.0000
15228SI     SI115228   4.665   0.510   0.416  0.0000  0.0000  0.0000
15229SI     SI115229   2.931   2.840   0.175  0.0000  0.0000  0.0000
15230SI     SI115230   6.011   8.093   1.056  0.0000  0.0000  0.0000
15231SI     SI115231   8.518   8.003   0.484  0.0000  0.0000  0.0000
15232SI     SI115232   6.237   6.312   0.446  0.0000  0.0000  0.0000
15233SI     SI115233   5.466   3.578   9.424  0.0000  0.0000  0.0000
15234SI     SI115234   1.740   5.494   9.119  0.0000  0.0000  0.0000
15235SI     SI115235   1.574   4.303   9.249  0.0000  0.0000  0.0000
15236SI     SI115236   6.421   5.741   9.452  0.0000  0.0000  0.0000
15237SI     SI115237   9.166   6.473   0.386  0.0000  0.0000  0.0000
15238SI     SI115238   0.241   3.926   8.986  0.0000  0.0000  0.0000
15239SI     SI115239   4.162   5.988   1.193  0.0000  0.0000  0.0000
15240SI     SI115240   4.208   2.934   0.236  0.0000  0.0000  0.0000
15241SI     SI115241   2.860   6.110   9.279  0.0000  0.0000  0.0000
15242SI     SI115242   8.446   2.376   0.484  0.0000  0.0000  0.0000
15243SI     SI115243   1.430   6.094   0.464  0.0000  0.0000  0.0000
15244SI     SI115244   4.614   6.216   8.778  0.0000  0.0000  0.0000
15245SI     SI115245   6.574   2.597   0.427  0.0000  0.0000  0.0000
15246SI     SI115246   0.460   2.241   8.878  0.0000  0.0000  0.0000
15247SI     SI115247   6.009   5.902   9.034  0.0000  0.0000  0.0000
15248SI     SI115248   0.442   7.448   0.694  0.0000  0.0000  0.0000
15249SI     SI115249   7.295   7.610   1.098  0.0000  0.0000  0.0000
15250SI     SI115250   8.027   4.230   8.619  0.0000  0.0000  0.0000
15251SI     SI115251   5.432   6.307   8.579  0.0000  0.0000  0.0000
15252SI     SI115252   4.057   0.978   0.712  0.0000  0.0000  0.0000
15253SI     SI115253   4.181   0.558   8.669  0.0000  0.0000  0.0000
15254SI     SI115254   3.566   3.962   0.773  0.0000  0.0000  0.0000
15255SI     SI115255   3.252   3.427   1.366  0.0000  0.0000  0.0000
15256SI     SI115256   3.885   1.133   0.925  0.0000  0.0000  0.0000
15257SI     SI115257   2.213   4.098   9.039  0.0000  0.0000  0.0000
15258SI     SI115258   1.489   6.468   8.547  0.0000  0.0000  0.0000
15259SI     SI115259   4.032   2.681   0.868  0.0000  0.0000  0.0000
15260SI     SI115260   4.445   2.199   8.821  0.0000  0.0000  0.0000
15261SI     SI115261   7.831   4.461   8.649  0.0000  0.0000  0.0000
15262SI     SI115262   3.200   4.472   9.055  0.0000  0.0000  0.0000
15263SI     SI115263   1.404   2.570   0.021  0.0000  0.0000  0.0000
15264SI     SI115264   5.111   1.586   8.809  0.0000  0.0000  0.0000
15265SI     SI115265   4.661   6.481   1.114  0.0000  0.0000  0.0000
15266SI     SI115266   0.704   7.126   0.795  0.0000  0.0000  0.0000
15267SI     SI115267   1.216   2.243   9.434  0.0000  0.0000  0.0000
15268SI     SI115268   2.135   8.954   8.540  0.0000  0.0000  0.0000
15269SI     SI115269   5.140   3.730   8.426  0.0000  0.0000  0.0000
15270SI     SI115270   2.864   5.680   0.150  0.0000  0.0000  0.0000
15271SI     SI115271   2.205   2.320   0.291  0.0000  0.0000  0.0000
15272SI     SI115272   1.310   8.771   8.532  0.0000  0.0000  0.0000
15273SI     SI115273   3.476   0.999   0.075  0.0000  0.0000  0.0000
15274SI     SI115274   9.179   8.212   9.038  0.0000  0.0000  0.0000
15275SI     SI115275   3.110   6.480   0.926  0.0000  0.0000  0.0000
15276SI     SI115276   1.171   5.560   9.269  0.0000  0.0000  0.0000
15277SI     SI115277   7.877   3.307   0.933  0.0000  0.0000  0.0000
15278SI     SI115278   3.978   0.839   9.262  0.0000  0.0000  0.0000
15279SI     SI115279   8.210   0.875   8.359  0.0000  0.0000  0.0000
15280SI     SI115280   4.515   5.790   8.369  0.0000  0.0000  0.0000
15281SI     SI115281   5.252   3.757   0.192  0.0000  0.0000  0.0000
15282SI     SI115282   3.353   4.389   9.327  0.0000  0.0000  0.0000
15283SI     SI115283   4.128   4.879   9.035  0.0000  0.0000  0.0000
15284SI     SI115284   1.917   3.622   8.940  0.0000  0.0000  0.0000
15285SI     SI115285   8.372   5.884   1.216  0.0000  0.0000  0.0000
15286SI     SI115286   4.029   6.385   0.765  0.0000  0.0000  0.0000
15287SI     SI115287   2.372   2.786   9.231  0.0000  0.0000  0.0000
15288SI     SI115288   7.595   9.461   0.728  0.0000  0.0000  0.0000
15289SI     SI115289   2.169   1.721   9.270  0.0000  0.0000  0.0000
15290SI     SI115290   1.119   2.778   8.474  0.0000  0.0000  0.0000
15291SI     SI115291   3.561   9.484   0.894  0.0000  0.0000  0.0000
15292SI     SI115292   6.964   4.710   0.604  0.0000  0.0000  0.0000
15293SI     SI115293   9.595   5.601   0.926  0.0000  0.0000  0.0000
15294SI     SI115294   6.765   3.248   0.187  0.0000  0.0000  0.0000
15295SI     SI115295   0.447   6.727   0.020  0.0000  0.0000  0.0000
15296SI     SI115296   0.609   8.180   0.133  0.0000  0.0000  0.0000
15297SI     SI115297   2.162   6.636   8.500  0.0000  0.0000  0.0000
15298SI     SI115298   5.314   2.755   0.157  0.0000  0.0000  0.0000
15299SI     SI115299   4.151   1.619   0.529  0.0000  0.0000  0.0000
15300SI     SI115300   8.301   6.487   8.378  0.0000  0.0000  0.0000
15301SI     SI115301   9.339   5.194   9.322  0.0000  0.0000  0.0000
15302SI     SI115302   3.109   1.887   0.579  0.0000  0.0000  0.0000
15303SI     SI115303   0.269   4.151   0.270  0.0000  0.0000  0.0000
15304SI     SI115304   4.205   1.656   9.210  0.0000  0.0000  0.0000
15305SI     SI115305   2.917   6.501   8.758  0.0000  0.0000  0.0000
15306SI     SI115306   8.359   5.807   0.921  0.0000  0.0000  0.0000
15307SI     SI115307   2.962   3.935   0.065  0.0000  0.0000  0.0000
15308SI     SI115308   6.627   6.104   0.247  0.0000  0.0000  0.0000
15309SI     SI115309   1.425   7.133   8.613  0.0000  0.0000  0.0000
15310SI     SI115310   4.673   2.717   0.423  0.0000  0.0000  0.0000
15311SI     SI115311   7.717   1.095   8.807  0.0000  0.0000  0.0000
15312SI     SI115312   3.464   2.408   0.457  0.0000  0.0000  0.0000
15313SI     SI115313   4.922   5.757   9.437  0.0000  0.0000  0.0000
15314SI     SI115314   4.366   1.830   1.150  0.0000  0.0000  0.0000
15315SI     SI115315   8.870   5.296   8.393  0.0000  0.0000  0.0000
15316SI     SI115316   8.920   5.296   0.363  0.0000  0.0000  0.0000
15317SI     SI115317   5.596   0.413   8.416  0.0000  0.0000  0.0000
15318SI     SI115318   3.932   7.550   0.946  0.0000  0.0000  0.0000
15319SI     SI115319   6.922   0.995   0.869  0.0000  0.0000  0.0000
15320SI     SI115320   3.936   5.691   0.902  0.0000  0.0000  0.0000
15321SI     SI115321   5.307   0.194   9.278  0.0000  0.0000  0.0000
15322SI     SI115322   6.113   8.271   9.422  0.0000  0.0000  0.0000
15323SI     SI115323   2.792   0.157   0.350  0.0000  0.0000  0.0000
15324SI     SI115324   8.682   8.008   9.424  0.0000  0.0000  0.0000
15325SI     SI115325   7.306   7.201   0.787  0.0000  0.0000  0.0000
15326SI     SI115326   1.495   4.765   0.429  0.0000  0.0000  0.0000
15327SI     SI115327   3.424   8.473   8.697  0.0000  0.0000  0.0000
15328SI     SI115328   5.299   4.942   8.650  0.0000  0.0000  0.0000
15329SI     SI115329   5.841   1.977   9.257  0.0000  0.0000  0.0000
15330SI     SI115330   7.728   4.481   1.221  0.0000  0.0000  0.0000
15331SI     SI115331   7.239   6.228   1.114  0.0000  0.0000  0.0000
15332SI     SI115332   5.355   1.982   1.298  0.0000  0.0000  0.0000
15333SI     SI115333   7.067   0.979   8.949  0.0000  0.0000  0.0000
15334SI     SI115334   0.535   4.489   9.328  0.0000  0.0000  0.0000
15335SI     SI115335   3.879   3.388   0.344  0.0000  0.0000  0.0000
15336SI     SI115336   5.257   0.102   0.198  0.0000  0.0000  0.0000
15337SI     SI115337   8.095   2.107   9.342  0.0000  0.0000  0.0000
15338SI     SI115338   7.188   3.935   1.177  0.0000  0.0000  0.0000
15339SI     SI115339   8.955   2.110   0.334  0.0000  0.0000  0.0000
15340SI     SI115340   4.069   3.091   1.290  0.0000  0.0000  0.0000
15341SI     SI115341   7.122   2.011   0.830  0.0000  0.0000  0.0000
15342SI     SI115342   2.767   0.213   9.477  0.0000  0.0000  0.0000
15343SI     SI115343   3.568   1.261   0.175  0.0000  0.0000  0.0000
15344SI     SI115344   0.609   3.194   8.349  0.0000  0.0000  0.0000
15345SI     SI115345   2.042   0.962   0.352  0.0000  0.0000  0.0000
15346SI     SI115346   8.987   0.069   0.266  0.0000  0.0000  0.0000
15347SI     SI115347   5.805   2.547   9.255  0.0000  0.0000  0.0000
15348SI     SI115348   0.887   7.927   8.621  0.0000  0.0000  0.0000
15349SI     SI115349   3.715   0.286   0.108  0.0000  0.0000  0.0000
15350SI     SI115350   8.945   2.220   0.903  0.0000  0.0000  0.0000
15351SI     SI115351   6.700   4.757   0.460  0.0000  0.0000  0.0000
15352SI     SI115352   4.564   5.270   0.623  0.0000  0.0000  0.0000
15353SI     SI115353   9.099   2.673   0.905  0.0000  0.0000  0.0000
15354SI     SI115354   4.731   3.017   0.869  0.0000  0.0000  0.0000
15355SI     SI115355   3.635   3.964   9.477  0.0000  0.0000  0.0000
15356SI     SI115356   9.371   2.762   9.142  0.0000  0.0000  0.0000
15357SI     SI115357   1.855   6.188   0.044  0.0000  0.0000  0.0000
15358SI     SI115358   7.672   3.687   8.607  0.0000  0.0000  0.0000
15359SI     SI115359   4.067   2.135   0.937  0.0000  0.0000  0.0000
15360SI     SI115360   7.394   6.593   9.529  0.0000  0.0000  0.0000
15361SI     SI115361   6.428   2.742   1.013  0.0000  0.0000  0.0000
15362SI     SI115362   6.392   7.780   0.911  0.0000  0.0000  0.0000
15363SI     SI115363   0.860   9.097   8.816  0.0000  0.0000  0.0000
15364SI     SI115364   6.670   0.933   9.186  0.0000  0.0000  0.0000
15365SI     SI115365   1.075   4.926   8.877  0.0000  0.0000  0.0000
15366SI     SI115366   7.567   0.385   9.450  0.0000  0.0000  0.0000
15367SI     SI115367   2.728   6.249   9.036  0.0000  0.0000  0.0000
15368SI     SI115368   8.446   8.994   9.543  0.0000  0.0000  0.0000
15369SI     SI115369   2.221   1.430   9.392  0.0000  0.0000  0.0000
15370SI     SI115370   1.820   6.928   9.024  0.0000  0.0000  0.0000
15371SI     SI115371   4.279   1.251   8.470  0.0000  0.0000  0.0000
15372SI     SI115372   7.536   2.916   9.088  0.0000  0.0000  0.0000
15373SI     SI115373   0.766   2.549   0.658  0.0000  0.0000  0.0000
15374SI     SI115374   4.328   9.237   0.530  0.0000  0.0000  0.0000
15375SI     SI115375   3.063   3.010   0.585  0.0000  0.0000  0.0000
15376SI     SI115376   6.263   8.503   9.556  0.0000  0.0000  0.0000
15377SI     SI115377   3.098   4.896   8.803  0.0000  0.0000  0.0000
15378SI     SI115378   4.208   0.662   1.099  0.0000  0.0000  0.0000
15379SI     SI115379   6.454   5.063   9.074  0.0000  0.0000  0.0000
15380SI     SI115380   4.929   8.423   1.005  0.0000  0.0000  0.0000
15381SI     SI115381   8.132   5.160   8.847  0.0000  0.0000  0.0000
15382SI     SI115382   4.144   9.228   8.471  0.0000  0.0000  0.0000
15383SI     SI115383   4.681   1.702   8.707  0.0000  0.0000  0.0000
15384SI     SI115384   7.463   6.814   8.684  0.0000  0.0000  0.0000
15385SI     SI115385   5.989   0.896   9.082  0.0000  0.0000  0.0000
15386SI     SI115386   6.507   4.359   0.907  0.0000  0.0000  0.0000
15387SI     SI115387   1.678   2.972   9.317  0.0000  0.0000  0.0000
15388SI     SI115388   3.280   8.588   0.903  0.0000  0.0000  0.0000
15389SI     SI115389   6.716   2.844   1.088  0.0000  0.0000  0.0000
15390SI     SI115390   7.374   0.173   8.535  0.0000  0.0000  0.0000
15391SI     SI115391   3.870   1.891   8.975  0.0000  0.0000  0.0000
15392SI     SI115392   8.660   1.911   0.580  0.0000  0.0000  0.0000
15393SI     SI115393   9.100   9.030   1.196  0.0000  0.0000  0.0000
15394SI     SI115394   7.697   4.157   9.267  0.0000  0.0000  0.0000
15395SI     SI115395   6.105   4.230   0.369  0.0000  0.0000  0.0000
15396SI     SI115396   5.309   3.093   8.547  0.0000  0.0000  0.0000
15397SI     SI115397   7.390   0.756   1.018  0.0000  0.0000  0.0000
15398SI     SI115398   1.424   4.570   0.223  0.0000  0.0000  0.0000
15399SI     SI115399   0.520   7.730   9.443  0.0000  0.0000  0.0000
15400SI     SI115400   4.643   4.399   9.135  0.0000  0.0000  0.0000
15401SI     SI115401   4.804   2.129   0.190  0.0000  0.0000  0.0000
15402SI     SI115402   2.149   8.375   8.917  0.0000  0.0000  0.0000
15403SI     SI115403   3.142   2.365   1.179  0.0000  0.0000  0.0000
15404SI     SI115404   2.601   3.820   9.154  0.0000  0.0000  0.0000
15405SI     SI115405   3.961   6.661   8.428  0.0000  0.0000  0.0000
15406SI     SI115406   0.652   6.484   8.336  0.0000  0.0000  0.0000
15407SI     SI115407   9.520   3.929   9.205  0.0000  0.0000  0.0000
15408SI     SI115408   7.492   0.491   1.150  0.0000  0.0000  0.0000
15409SI     SI115409   3.931   9.411   8.828  0.0000  0.0000  0.0000
15410SI     SI115410   5.032   8.907   1.271  0.0000  0.0000  0.0000
15411SI     SI115411   9.280   2.398   8.842  0.0000  0.0000  0.0000
15412SI     SI115412   9.347   2.481   0.941  0.0000  0.0000  0.0000
15413SI     SI115413   5.714   6.984   9.340  0.0000  0.0000  0.0000
15414SI     SI115414   1.737   4.835   8.600  0.0000  0.0000  0.0000
15415SI     SI115415   0.272   4.457   0.284  0.0000  0.0000  0.0000
15416SI     SI115416   0.386   0.696   9.162  0.0000  0.0000  0.0000
15417SI     SI115417   0.618   7.761   1.060  0.0000  0.0000  0.0000
15418SI     SI115418   3.152   9.249   0.539  0.0000  0.0000  0.0000
15419SI     SI115419   9.281   2.019   1.186  0.0000  0.0000  0.0000
15420SI     SI115420   0.041   0.582   0.730  0.0000  0.0000  0.0000
15421SI     SI115421   6.039   6.526   0.925  0.0000  0.0000  0.0000
15422SI     SI115422   6.084   4.159   8.525  0.0000  0.0000  0.0000
15423SI     SI115423   4.780   2.487   0.952  0.0000  0.0000  0.0000
15424SI     SI115424   1.873   8.941   8.967  0.0000  0.0000  0.0000
15425SI     SI115425   8.565   6.500   0.017  0.0000  0.0000  0.0000
15426SI     SI115426   3.374   8.895   1.356  0.0000  0.0000  0.0000
15427SI     SI115427   9.353   5.143   0.815  0.0000  0.0000  0.0000
15428SI     SI115428   2.203   6.814   0.242  0.0000  0.0000  0.0000
15429SI     SI115429   6.156   2.785   1.176  0.0000  0.0000  0.0000
15430SI     SI115430   3.282   3.100   9.592  0.0000  0.0000  0.0000
15431SI     SI115431   7.255   0.728   9.294  0.0000  0.0000  0.0000
15432SI     SI115432   3.040   5.191   8.840  0.0000  0.0000  0.0000
15433SI     SI115433   7.723   5.034   1.134  0.0000  0.0000  0.0000
15434SI     SI115434   8.662   5.356   0.227  0.0000  0.0000  0.0000
15435SI     SI115435   2.661   4.731   8.527  0.0000  0.0000  0.0000
15436SI     SI115436   9.147   0.648   0.097  0.0000  0.0000  0.0000
15437SI     SI115437   0.524   7.101   1.279  0.0000  0.0000  0.0000
15438SI     SI115438   1.845   8.425   8.835  0.0000  0.0000  0.0000
15439SI     SI115439   8.223   1.132   0.292  0.0000  0.0000  0.0000
15440SI     SI115440   2.162   7.703   0.975  0.0000  0.0000  0.0000
15441SI     SI115441   3.002   3.176   8.545  0.0000  0.0000  0.0000
15442SI     SI115442   1.438   6.768   9.083  0.0000  0.0000  0.0000
15443SI     SI115443   9.050   5.947   0.748  0.0000  0.0000  0.0000
15444SI     SI115444   7.413   7.731   8.786  0.0000  0.0000  0.0000
15445SI     SI115445   6.761   6.314   1.400  0.0000  0.0000  0.0000
15446SI     SI115446   6.119   5.253   0.098  0.0000  0.0000  0.0000
15447SI     SI115447   5.486   2.569   8.659  0.0000  0.0000  0.0000
15448SI     SI115448   5.879   2.713   1.145  0.0000  0.0000  0.0000
15449SI     SI115449   1.205   9.048   9.277  0.0000  0.0000  0.0000
15450SI     SI115450   0.152   0.365   0.906  0.0000  0.0000  0.0000
15451SI     SI115451   7.417   4.182   0.087  0.0000  0.0000  0.0000
15452SI     SI115452   6.249   3.046   0.357  0.0000  0.0000  0.0000
15453SI     SI115453   6.737   0.650   9.048  0.0000  0.0000  0.0000
15454SI     SI115454   8.283   5.531   9.176  0.0000  0.0000  0.0000
15455SI     SI115455   2.649   2.230   9.582  0.0000  0.0000  0.0000
15456SI     SI115456   8.979   3.743   1.309  0.0000  0.0000  0.0000
15457SI     SI115457   4.734   8.974   9.115  0.0000  0.0000  0.0000
15458SI     SI115458   6.680   6.460   0.612  0.0000  0.0000  0.0000
15459SI     SI115459   9.356   8.440   9.169  0.0000  0.0000  0.0000
15460SI     SI115460   8.510   3.979   1.331  0.0000  0.0000  0.0000
15461SI     SI115461   4.310   6.254   9.168  0.0000  0.0000  0.0000
15462SI     SI115462   1.559   7.060   9.106  0.0000  0.0000  0.0000
15463SI     SI115463   4.034   5.540   0.178  0.0000  0.0000  0.0000
15464SI     SI115464   6.469   6.120   1.153  0.0000  0.0000  0.0000
15465SI     SI115465   6.805   3.249   8.981  0.0000  0.0000  0.0000
15466SI     SI115466   0.668   1.007   0.857  0.0000  0.0000  0.0000
15467SI     SI115467   1.401   1.717   0.810  0.0000  0.0000  0.0000
15468SI     SI115468   0.142   4.840   9.447  0.0000  0.0000  0.0000
15469SI     SI115469   8.042   2.852   1.103  0.0000  0.0000  0.0000
15470SI     SI115470   2.348   7.248   9.469  0.0000  0.0000  0.0000
15471SI     SI115471   3.683   0.348   1.017  0.0000  0.0000  0.0000
15472SI     SI115472   3.034   6.659   1.153  0.0000  0.0000  0.0000
15473SI     SI115473   8.045   7.591   0.200  0.0000  0.0000  0.0000
15474SI     SI115474   8.487   3.219   1.130  0.0000  0.0000  0.0000
15475SI     SI115475   0.416   0.815   0.869  0.0000  0.0000  0.0000
15476SI     SI115476   7.043   8.782   0.427  0.0000  0.0000  0.0000
15477SI     SI115477   7.068   4.440   8.835  0.0000  0.0000  0.0000
15478SI     SI115478   7.304   6.902   0.847  0.0000  0.0000  0.0000
15479SI     SI115479   5.997   4.859   0.441  0.0000  0.0000  0.0000
15480SI     SI115480   0.528   3.360   8.795  0.0000  0.0000  0.0000
15481SI     SI115481   5.442   7.745   9.562  0.0000  0.0000  0.0000
15482SI     SI115482   4.132   9.436   0.889  0.0000  0.0000  0.0000
15483SI     SI115483   2.809   3.681   0.770  0.0000  0.0000  0.0000
15484SI     SI115484   3.337   0.775   8.979  0.0000  0.0000  0.0000
15485SI     SI115485   8.906   9.174   1.003  0.0000  0.0000  0.0000
15486SI     SI115486   7.463   8.952   8.989  0.0000  0.0000  0.0000
15487SI     SI115487   6.747   3.290   9.270  0.0000  0.0000  0.0000
15488SI     SI115488   0.478   2.920   0.898  0.0000  0.0000  0.0000
15489SI     SI115489   9.192   6.095   8.365  0.0000  0.0000  0.0000
15490SI     SI115490   2.051   2.691   8.513  0.0000  0.0000  0.0000
15491SI     SI115491   7.991   3.412   9.467  0.0000  0.0000  0.0000
15492SI     SI115492   2.112   8.616   0.344  0.0000  0.0000  0.0000
15493SI     SI115493   8.206   1.660   8.517  0.0000  0.0000  0.0000
15494SI     SI115494   3.033   3.280   8.844  0.0000  0.0000  0.0000
15495SI     SI115495   4.868   5.071   8.731  0.0000  0.0000  0.0000
15496SI     SI115496   7.203   6.886   8.538  0.0000  0.0000  0.0000
15497SI     SI115497   5.915   1.455   0.102  0.0000  0.0000  0.0000
15498SI     SI115498   6.688   4.217   1.129  0.0000  0.0000  0.0000
15499SI     SI115499   4.799   3.462   8.695  0.0000  0.0000  0.0000
15500SI     SI115500   0.749   7.942   9.040  0.0000  0.0000  0.0000
15501SI     SI115501   6.281   6.593   1.099  0.0000  0.0000  0.0000
15502SI     SI115502   4.464   1.837   0.845  0.0000  0.0000  0.0000
15503SI     SI115503   4.645   2.675   9.120  0.0000  0.0000  0.0000
15504SI     SI115504   2.422   6.222   9.052  0.0000  0.0000  0.0000
15505SI     SI115505   4.632   6.623   9.445  0.0000  0.0000  0.0000
15506SI     SI115506   1.421   7.600   8.635  0.0000  0.0000  0.0000
15507SI     SI115507   0.239   3.117   0.870  0.0000  0.0000  0.0000
15508SI     SI115508   5.618   5.690   8.974  0.0000  0.0000  0.0000
15509SI     SI115509   6.880   7.576   9.563  0.0000  0.0000  0.0000
15510SI     SI115510   4.771   5.723   0.483  0.0000  0.0000  0.0000
15511SI     SI115511   0.339   6.349   0.776  0.0000  0.0000  0.0000
15512SI     SI115512   8.704   5.177   1.074  0.0000  0.0000  0.0000
15513SI     SI115513   3.229   1.220   0.558  0.0000  0.0000  0.0000
15514SI     SI115514   3.741   1.674   0.184  0.0000  0.0000  0.0000
15515SI     SI115515   8.641   6.077   0.492  0.0000  0.0000  0.0000
15516SI     SI115516   0.819   8.282   0.558  0.0000  0.0000  0.0000
15517SI     SI115517   2.204   6.829   9.201  0.0000  0.0000  0.0000
15518SI     SI115518   7.127   0.048   9.343  0.0000  0.0000  0.0000
15519SI     SI115519   1.035   4.270   8.577  0.0000  0.0000  0.0000
15520SI     SI115520   3.421   6.224   8.753  0.0000  0.0000  0.0000
15521SI     SI115521   3.611   2.493   0.192  0.0000  0.0000  0.0000
15522SI     SI115522   1.204   6.544   8.650  0.0000  0.0000  0.0000
15523SI     SI115523   5.049   5.685   0.367  0.0000  0.0000  0.0000
15524SI     SI115524   4.919   3.057   0.151  0.0000  0.0000  0.0000
15525SI     SI115525   5.298   6.762   8.945  0.0000  0.0000  0.0000
15526SI     SI115526   8.648   1.239   9.192  0.0000  0.0000  0.0000
15527SI     SI115527   1.833   4.309   0.337  0.0000  0.0000  0.0000
15528SI     SI115528   7.051   2.819   8.650  0.0000  0.0000  0.0000
15529SI     SI115529   7.872   1.392   0.887  0.0000  0.0000  0.0000
15530SI     SI115530   5.288   6.808   1.262  0.0000  0.0000  0.0000
15531SI     SI115531   9.296   7.722   8.747  0.0000  0.0000  0.0000
15532SI     SI115532   4.672   7.873   0.895  0.0000  0.0000  0.0000
15533SI     SI115533   6.028   0.981   0.238  0.0000  0.0000  0.0000
15534SI     SI115534   6.616   7.198   9.003  0.0000  0.0000  0.0000
15535SI     SI115535   7.482   1.866   9.089  0.0000  0.0000  0.0000
15536SI     SI115536   5.028   0.102   0.408  0.0000  0.0000  0.0000
15537SI     SI115537   4.332   1.331   0.013  0.0000  0.0000  0.0000
15538SI     SI115538   9.312   7.975   9.145  0.0000  0.0000  0.0000
15539SI     SI115539   6.691   7.909   9.213  0.0000  0.0000  0.0000
15540SI     SI115540   5.948   7.899   8.843  0.0000  0.0000  0.0000
15541SI     SI115541   2.375   5.567   0.134  0.0000  0.0000  0.0000
15542SI     SI115542   4.977   3.309   9.305  0.0000  0.0000  0.0000
15543SI     SI115543   5.164   9.576   8.860  0.0000  0.0000  0.0000
15544SI     SI115544   1.477   7.295   0.237  0.0000  0.0000  0.0000
15545SI     SI115545   1.802   6.230   9.350  0.0000  0.0000  0.0000
15546SI     SI115546   4.373   8.621   8.195  0.0000  0.0000  0.0000
15547SI     SI115547   8.430   5.034   0.065  0.0000  0.0000  0.0000
15548SI     SI115548   7.716   7.818   9.433  0.0000  0.0000  0.0000
15549SI     SI115549   7.963   4.308   0.230  0.0000  0.0000  0.0000
15550SI     SI115550   4.086   3.011   8.500  0.0000  0.0000  0.0000
15551SI     SI115551   3.866   2.471   0.711  0.0000  0.0000  0.0000
15552SI     SI115552   0.254   7.113   0.396  0.0000  0.0000  0.0000
15553SI     SI115553   5.772   8.529   9.103  0.0000  0.0000  0.0000
15554SI     SI115554   4.680   3.231   8.860  0.0000  0.0000  0.0000
15555SI     SI115555   0.442   1.565   0.067  0.0000  0.0000  0.0000
15556SI     SI115556   4.507   8.340   0.299  0.0000  0.0000  0.0000
15557SI     SI115557   5.386   0.654   1.323  0.0000  0.0000  0.0000
15558SI     SI115558   1.679   3.062   0.168  0.0000  0.0000  0.0000
15559SI     SI115559   6.074   2.151   0.049  0.0000  0.0000  0.0000
15560SI     SI115560   8.396   6.203   8.839  0.0000  0.0000  0.0000
15561SI     SI115561   0.536   6.889   0.741  0.0000  0.0000  0.0000
15562SI     SI115562   3.367   7.526   1.213  0.0000  0.0000  0.0000
15563SI     SI115563   0.281   1.483   1.091  0.0000  0.0000  0.0000
15564SI     SI115564   0.108   8.675   9.472  0.0000  0.0000  0.0000
15565SI     SI115565   9.447   4.192   9.366  0.0000  0.0000  0.0000
15566SI     SI115566   1.153   1.914   0.762  0.0000  0.0000  0.0000
15567SI     SI115567   9.168   2.857   0.113  0.0000  0.0000  0.0000
15568SI     SI115568   7.780   3.708   9.071  0.0000  0.0000  0.0000
15569SI     SI115569   8.589   3.672   9.380  0.0000  0.0000  0.0000
15570SI     SI115570   9.114   3.243   8.327  0.0000  0.0000  0.0000
15571SI     SI115571   3.506   1.260   8.869  0.0000  0.0000  0.0000
15572SI     SI115572   5.937   5.075   0.839  0.0000  0.0000  0.0000
15573SI     SI115573   1.163   7.037   0.530  0.0000  0.0000  0.0000
15574SI     SI115574   4.511   2.493   9.343  0.0000  0.0000  0.0000
15575SI     SI115575   7.535   7.033   0.423  0.0000  0.0000  0.0000
15576SI     SI115576   9.212   3.947   0.552  0.0000  0.0000  0.0000
15577SI     SI115577   0.200   3.898   1.330  0.0000  0.0000  0.0000
15578SI     SI115578   1.004   4.738   0.546  0.0000  0.0000  0.0000
15579SI     SI115579   2.003   8.420   0.123  0.0000  0.0000  0.0000
15580SI     SI115580   4.998   0.478   0.017  0.0000  0.0000  0.0000
15581SI     SI115581   4.098   5.576   0.666  0.0000  0.0000  0.0000
15582SI     SI115582   1.288   3.887   9.275  0.0000  0.0000  0.0000
15583SI     SI115583   4.377   4.264   0.832  0.0000  0.0000  0.0000
15584SI     SI115584   8.675   6.980   8.546  0.0000  0.0000  0.0000
15585SI     SI115585   1.983   2.725   9.017  0.0000  0.0000  0.0000
15586SI     SI115586   6.896   3.934   9.050  0.0000  0.0000  0.0000
15587SI     SI115587   8.428   9.312   9.169  0.0000  0.0000  0.0000
15588SI     SI115588   6.337   8.880   0.624  0.0000  0.0000  0.0000
15589SI     SI115589   2.819   4.709   0.110  0.0000  0.0000  0.0000
15590SI     SI115590   4.740   3.212   0.623  0.0000  0.0000  0.0000
15591SI     SI115591   3.497   4.061   0.505  0.0000  0.0000  0.0000
15592SI     SI115592   3.559   2.110   1.011  0.0000  0.0000  0.0000
15593SI     SI115593   3.152   3.129   9.093  0.0000  0.0000  0.0000
15594SI     SI115594   1.088   5.684   0.914  0.0000  0.0000  0.0000
15595SI     SI115595   2.169   7.275   8.972  0.0000  0.0000  0.0000
15596SI     SI115596   8.031   9.475   0.887  0.0000  0.0000  0.0000
15597SI     SI115597   0.445   7.120   9.228  0.0000  0.0000  0.0000
15598SI     SI115598   4.824   0.713   8.292  0.0000  0.0000  0.0000
15599SI     SI115599   2.150   2.043   0.655  0.0000  0.0000  0.0000
15600SI     SI115600   2.473   8.501   0.069  0.0000  0.0000  0.0000
15601SI     SI115601   4.003   2.737   0.342  0.0000  0.0000  0.0000
15602SI     SI115602   7.736   3.976   0.930  0.0000  0.0000  0.0000
15603SI     SI115603   2.128   6.004   8.766  0.0000  0.0000  0.0000
15604SI     SI115604   3.213   6.432   8.858  0.0000  0.0000  0.0000
15605SI     SI115605   8.604   5.597   0.407  0.0000  0.0000  0.0000
15606SI     SI115606   7.758   7.453   0.155  0.0000  0.0000  0.0000
15607SI     SI115607   2.825   8.832   0.120  0.0000  0.0000  0.0000
15608SI     SI115608   5.461   3.090   0.026  0.0000  0.0000  0.0000
15609SI     SI115609   5.539   4.609   9.444  0.0000  0.0000  0.0000
15610SI     SI115610   9.205   5.979   8.928  0.0000  0.0000  0.0000
15611SI     SI115611   2.334   4.200   0.544  0.0000  0.0000  0.0000
15612SI     SI115612   8.705   8.210   0.381  0.0000  0.0000  0.0000
15613SI     SI115613   0.548   5.404   0.386  0.0000  0.0000  0.0000
15614SI     SI115614   0.364   0.751   1.152  0.0000  0.0000  0.0000
15615SI     SI115615   5.421   3.626   1.079  0.0000  0.0000  0.0000
15616SI     SI115616   9.602   0.985   9.036  0.0000  0.0000  0.0000
15617SI     SI115617   5.010   8.847   9.108  0.0000  0.0000  0.0000
15618SI     SI115618   2.013   2.051   8.700  0.0000  0.0000  0.0000
15619SI     SI115619   1.225   7.486   8.859  0.0000  0.0000  0.0000
15620SI     SI115620   6.764   6.422   0.910  0.0000  0.0000  0.0000
15621SI     SI115621   9.078   4.829   8.393  0.0000  0.0000  0.0000
15622SI     SI115622   2.930   8.868   8.578  0.0000  0.0000  0.0000
15623SI     SI115623   7.186   8.045   0.949  0.0000  0.0000  0.0000
15624SI     SI115624   4.125   1.547   0.977  0.0000  0.0000  0.0000
15625SI     SI115625   2.732   8.198   1.267  0.0000  0.0000  0.0000
15626SI     SI115626   5.274   4.132   9.494  0.0000  0.0000  0.0000
15627SI     SI115627   7.478   3.285   8.509  0.0000  0.0000  0.0000
15628SI     SI115628   2.251   3.750   9.491  0.0000  0.0000  0.0000
15629SI     SI115629   5.014   6.077   0.752  0.0000  0.0000  0.0000
15630SI     SI115630   5.815   4.590   9.308  0.0000  0.0000  0.0000
15631SI     SI115631   8.189   2.026   8.837  0.0000  0.0000  0.0000
15632SI     SI115632   2.502   5.936   9.027  0.0000  0.0000  0.0000
15633SI     SI115633   4.065   5.752   0.407  0.0000  0.0000  0.0000
15634SI     SI115634   1.223   4.061   8.834  0.0000  0.0000  0.0000
15635SI     SI115635   3.556   0.310   9.127  0.0000  0.0000  0.0000
15636SI     SI115636   4.613   0.612   8.873  0.0000  0.0000  0.0000
15637SI     SI115637   0.657   0.076   8.534  0.0000  0.0000  0.0000
15638SI     SI115638   3.212   0.342   0.251  0.0000  0.0000  0.0000
15639SI     SI115639   6.375   8.086   0.937  0.0000  0.0000  0.0000
15640SI     SI115640   3.515   0.368   0.331  0.0000  0.0000  0.0000
15641SI     SI115641   7.246   5.597   9.221  0.0000  0.0000  0.0000
15642SI     SI115642   5.181   5.451   8.804  0.0000  0.0000  0.0000
15643SI     SI115643   8.299   5.636   1.387  0.0000  0.0000  0.0000
15644SI     SI115644   7.210   1.434   0.314  0.0000  0.0000  0.0000
15645SI     SI115645   2.195   4.992   0.490  0.0000  0.0000  0.0000
15646SI     SI115646   9.594   7.417   0.718  0.0000  0.0000  0.0000
15647SI     SI115647   9.174   7.265   1.066  0.0000  0.0000  0.0000
15648SI     SI115648   2.797   1.608   0.436  0.0000  0.0000  0.0000
15649SI     SI115649   4.630   7.644   1.096  0.0000  0.0000  0.0000
15650SI     SI115650   6.850   5.636   0.750  0.0000  0.0000  0.0000
15651SI     SI115651   6.573   8.734   9.262  0.0000  0.0000  0.0000
15652SI     SI115652   6.373   6.210   9.093  0.0000  0.0000  0.0000
15653SI     SI115653   0.616   0.114   8.842  0.0000  0.0000  0.0000
15654SI     SI115654   5.766   4.819   8.431  0.0000  0.0000  0.0000
15655SI     SI115655   0.990   9.360   0.263  0.0000  0.0000  0.0000
15656SI     SI115656   5.087   8.025   8.725  0.0000  0.0000  0.0000
15657SI     SI115657   0.158   2.518   0.775  0.0000  0.0000  0.0000
15658SI     SI115658   0.020   3.989   8.361  0.0000  0.0000  0.0000
15659SI     SI115659   7.243   4.292   8.391  0.0000  0.0000  0.0000
15660SI     SI115660   1.789   9.378   0.786  0.0000  0.0000  0.0000
15661SI     SI115661   0.190   5.696   9.121  0.0000  0.0000  0.0000
15662SI     SI115662   0.000   0.542   0.418  0.0000  0.0000  0.0000
15663SI     SI115663   4.716   3.980   8.873  0.0000  0.0000  0.0000
15664SI     SI115664   8.667   6.789   1.064  0.0000  0.0000  0.0000
15665SI     SI115665   7.274   2.475   0.262  0.0000  0.0000  0.0000
15666SI     SI115666   8.019   1.043   8.748  0.0000  0.0000  0.0000
15667SI     SI115667   5.658   3.414   1.054  0.0000  0.0000  0.0000
15668SI     SI115668   3.355   1.093   8.326  0.0000  0.0000  0.0000
15669SI     SI115669   0.061   4.443   0.072  0.0000  0.0000  0.0000
15670SI     SI115670   0.123   5.891   9.356  0.0000  0.0000  0.0000
15671SI     SI115671   7.831   1.627   8.860  0.0000  0.0000  0.0000
15672SI     SI115672   2.267   5.759   8.629  0.0000  0.0000  0.0000
15673SI     SI115673   3.120   1.035   1.183  0.0000  0.0000  0.0000
15674SI     SI115674   3.597   9.325   1.158  0.0000  0.0000  0.0000
15675SI     SI115675   5.710   5.999   8.499  0.0000  0.0000  0.0000
15676SI     SI115676   3.751   7.265   0.561  0.0000  0.0000  0.0000
15677SI     SI115677   4.681   1.717   0.447  0.0000  0.0000  0.0000
15678SI     SI115678   0.327   5.887   8.921  0.0000  0.0000  0.0000
15679SI     SI115679   4.346   3.904   9.228  0.0000  0.0000  0.0000
15680SI     SI115680   5.463   5.925   0.655  0.0000  0.0000  0.0000
15681SI     SI115681   6.084   7.275   0.549  0.0000  0.0000  0.0000
15682SI     SI115682   1.720   6.213   0.453  0.0000  0.0000  0.0000
15683SI     SI115683   2.219   0.443   9.278  0.0000  0.0000  0.0000
15684SI     SI115684   8.050   6.346   8.512  0.0000  0.0000  0.0000
15685SI     SI115685   7.370   6.304   0.350  0.0000  0.0000  0.0000
15686SI     SI115686   0.397   1.168   8.630  0.0000  0.0000  0.0000
15687SI     SI115687   9.138   4.328   0.403  0.0000  0.0000  0.0000
15688SI     SI115688   0.375   2.669   8.627  0.0000  0.0000  0.0000
15689SI     SI115689   9.278   8.962   9.592  0.0000  0.0000  0.0000
15690SI     SI115690   3.641   2.112   8.975  0.0000  0.0000  0.0000
15691SI     SI115691   3.935   3.590   9.414  0.0000  0.0000  0.0000
15692SI     SI115692   8.260   7.513   9.295  0.0000  0.0000  0.0000
15693SI     SI115693   4.039   9.119   9.586  0.0000  0.0000  0.0000
15694SI     SI115694   9.345   5.621   9.484  0.0000  0.0000  0.0000
15695SI     SI115695   4.655   7.724   8.584  0.0000  0.0000  0.0000
15696SI     SI115696   9.236   4.517   0.825  0.0000  0.0000  0.0000
15697SI     SI115697   1.123   6.743   9.102  0.0000  0.0000  0.0000
15698SI     SI115698   6.851   8.368   0.228  0.0000  0.0000  0.0000
15699SI     SI115699   7.082   5.611   8.709  0.0000  0.0000  0.0000
15700SI     SI115700   4.634   6.317   8.476  0.0000  0.0000  0.0000
15701SI     SI115701   7.543   0.544   8.882  0.0000  0.0000  0.0000
15702SI     SI115702   0.829   0.706   0.351  0.0000  0.0000  0.0000
15703SI     SI115703   7.572   4.119   8.791  0.0000  0.0000  0.0000
15704SI     SI115704   1.220   2.704   0.918  0.0000  0.0000  0.0000
15705SI     SI115705   6.714   9.188   8.856  0.0000  0.0000  0.0000
15706SI     SI115706   1.027   2.645   8.729  0.0000  0.0000  0.0000
15707SI     SI115707   9.211   8.548   8.710  0.0000  0.0000  0.0000
15708SI     SI115708   1.269   8.275   0.447  0.0000  0.0000  0.0000
15709SI     SI115709   1.056   5.454   8.564  0.0000  0.0000  0.0000
15710SI     SI115710   2.826   1.876   8.974  0.0000  0.0000  0.0000
15711SI     SI115711   1.946   2.832   9.303  0.0000  0.0000  0.0000
15712SI     SI115712   5.882   5.695   8.823  0.0000  0.0000  0.0000
15713SI     SI115713   4.416   2.613   0.560  0.0000  0.0000  0.0000
15714SI     SI115714   8.327   0.461   8.519  0.0000  0.0000  0.0000
15715SI     SI115715   1.301   3.471   8.732  0.0000  0.0000  0.0000
15716SI     SI115716   0.129   4.402   0.839  0.0000  0.0000  0.0000
15717SI     SI115717   8.256   2.496   8.687  0.0000  0.0000  0.0000
15718SI     SI115718   1.015   0.389   0.660  0.0000  0.0000  0.0000
15719SI     SI115719   8.039   6.769   8.653  0.0000  0.0000  0.0000
15720SI     SI115720   3.363   7.292   0.435  0.0000  0.0000  0.0000
15721SI     SI115721   1.254   8.495   8.795  0.0000  0.0000  0.0000
15722SI     SI115722   3.107   8.024   0.485  0.0000  0.0000  0.0000
15723SI     SI115723   9.045   0.074   9.115  0.0000  0.0000  0.0000
15724SI     SI115724   0.974   4.168   8.993  0.0000  0.0000  0.0000
15725SI     SI115725   6.536   3.840   0.849  0.0000  0.0000  0.0000
15726SI     SI115726   5.459   0.332   8.671  0.0000  0.0000  0.0000
15727SI     SI115727   4.772   1.058   0.795  0.0000  0.0000  0.0000
15728SI     SI115728   3.756   1.595   8.971  0.0000  0.0000  0.0000
15729SI     SI115729   4.396   2.208   9.316  0.0000  0.0000  0.0000
15730SI     SI115730   3.518   1.396   9.504  0.0000  0.0000  0.0000
15731SI     SI115731   3.224   6.271   0.010  0.0000  0.0000  0.0000
15732SI     SI115732   9.160   7.118   0.633  0.0000  0.0000  0.0000
15733SI     SI115733   6.112   4.334   8.788  0.0000  0.0000  0.0000
15734SI     SI115734   5.874   8.871   9.552  0.0000  0.0000  0.0000
15735SI     SI115735   7.269   9.310   0.437  0.0000  0.0000  0.0000
15736SI     SI115736   4.101   7.158   1.025  0.0000  0.0000  0.0000
15737SI     SI115737   1.386   1.678   8.652  0.0000  0.0000  0.0000
15738SI     SI115738   7.768   6.578   0.631  0.0000  0.0000  0.0000
15739SI     SI115739   8.094   2.922   0.009  0.0000  0.0000  0.0000
15740SI     SI115740   2.382   2.266   8.671  0.0000  0.0000  0.0000
15741SI     SI115741   6.799   8.539   0.708  0.0000  0.0000  0.0000
15742SI     SI115742   8.504   6.475   8.824  0.0000  0.0000  0.0000
15743SI     SI115743   5.864   3.515   0.837  0.0000  0.0000  0.0000
15744SI     SI115744   3.321   4.471   1.004  0.0000  0.0000  0.0000
15745SI     SI115745   7.932   4.453   0.992  0.0000  0.0000  0.0000
15746SI     SI115746   1.749   5.727   9.291  0.0000  0.0000  0.0000
15747SI     SI115747   3.711   5.822   8.864  0.0000  0.0000  0.0000
15748SI     SI115748   0.131   5.769   0.028  0.0000  0.0000  0.0000
15749SI     SI115749   5.937   3.269   8.590  0.0000  0.0000  0.0000
15750SI     SI115750   4.550   9.594   8.555  0.0000  0.0000  0.0000
15751SI     SI115751   3.880   5.447   8.981  0.0000  0.0000  0.0000
15752SI     SI115752   4.640   2.230   0.614  0.0000  0.0000  0.0000
15753SI     SI115753   8.797   9.013   0.392  0.0000  0.0000  0.0000
15754SI     SI115754   1.335   0.778   1.383  0.0000  0.0000  0.0000
15755SI     SI115755   4.474   8.463   8.437  0.0000  0.0000  0.0000
15756SI     SI115756   6.314   2.349   9.238  0.0000  0.0000  0.0000
15757SI     SI115757   5.178   1.499   0.360  0.0000  0.0000  0.0000
15758SI     SI115758   2.532   9.328   9.305  0.0000  0.0000  0.0000
15759SI     SI115759   0.227   7.272   0.836  0.0000  0.0000  0.0000
15760SI     SI115760   3.434   7.461   0.923  0.0000  0.0000  0.0000
15761SI     SI115761   1.217   5.422   0.919  0.0000  0.0000  0.0000
15762SI     SI115762   4.823   4.166   9.248  0.0000  0.0000  0.0000
15763SI     SI115763   4.912   9.563   0.858  0.0000  0.0000  0.0000
15764SI     SI115764   2.004   3.816   0.570  0.0000  0.0000  0.0000
15765SI     SI115765   4.686   9.502   9.062  0.0000  0.0000  0.0000
15766SI     SI115766   0.662   3.479   8.292  0.0000  0.0000  0.0000
15767SI     SI115767   6.159   1.896   0.221  0.0000  0.0000  0.0000
15768SI     SI115768   3.155   5.283   0.213  0.0000  0.0000  0.0000
15769SI     SI115769   3.689   5.258   9.529  0.0000  0.0000  0.0000
15770SI     SI115770   1.646   6.913   8.590  0.0000  0.0000  0.0000
15771SI     SI115771   4.785   3.655   9.263  0.0000  0.0000  0.0000
15772SI     SI115772   5.264   1.746   0.880  0.0000  0.0000  0.0000
15773SI     SI115773   7.086   6.612   8.467  0.0000  0.0000  0.0000
15774SI     SI115774   5.503   2.225   8.320  0.0000  0.0000  0.0000
15775SI     SI115775   4.768   7.738   0.463  0.0000  0.0000  0.0000
15776SI     SI115776   3.829   6.318   9.120  0.0000  0.0000  0.0000
15777SI     SI115777   8.682   3.750   0.973  0.0000  0.0000  0.0000
15778SI     SI115778   3.135   3.370   0.865  0.0000  0.0000  0.0000
15779SI     SI115779   1.083   9.010   0.771  0.0000  0.0000  0.0000
15780SI     SI115780   0.672   4.505   1.085  0.0000  0.0000  0.0000
15781SI     SI115781   9.447   1.179   0.402  0.0000  0.0000  0.0000
15782SI     SI115782   2.574   4.830   9.578  0.0000  0.0000  0.0000
15783SI     SI115783   0.855   1.437   1.006  0.0000  0.0000  0.0000
15784SI     SI115784   9.286   1.081   0.145  0.0000  0.0000  0.0000
15785SI     SI115785   5.570   3.502   8.729  0.0000  0.0000  0.0000
15786SI     SI115786   7.907   0.594   9.117  0.0000  0.0000  0.0000
15787SI     SI115787   0.786   9.218   8.372  0.0000  0.0000  0.0000
15788SI     SI115788   5.129   6.523   9.305  0.0000  0.0000  0.0000
15789SI     SI115789   3.607   2.882   0.625  0.0000  0.0000  0.0000
15790SI     SI115790   2.901   0.572   0.949  0.0000  0.0000  0.0000
15791SI     SI115791   8.302   9.374   0.819  0.0000  0.0000  0.0000
15792SI     SI115792   0.857   8.809   9.441  0.0000  0.0000  0.0000
15793SI     SI115793   0.523   6.350   1.276  0.0000  0.0000  0.0000
15794SI     SI115794   2.387   0.416   1.073  0.0000  0.0000  0.0000
15795SI     SI115795   4.853   1.649   9.592  0.0000  0.0000  0.0000
15796SI     SI115796   7.885   8.419   8.685  0.0000  0.0000  0.0000
15797SI     SI115797   8.680   2.512   8.916  0.0000  0.0000  0.0000
15798SI     SI115798   9.564   1.252   8.868  0.0000  0.0000  0.0000
15799SI     SI115799   6.279   0.850   9.101  0.0000  0.0000  0.0000
15800SI     SI115800   7.220   1.212   0.547  0.0000  0.0000  0.0000
15801SI     SI115801   6.640   8.165   1.045  0.0000  0.0000  0.0000
15802SI     SI115802   7.846   5.066   8.785  0.0000  0.0000  0.0000
15803SI     SI115803   8.665   5.914   1.291  0.0000  0.0000  0.0000
15804SI     SI115804   8.977   7.377   0.863  0.0000  0.0000  0.0000
15805SI     SI115805   9.328   7.254   8.659  0.0000  0.0000  0.0000
15806SI     SI115806   5.390   2.921   9.387  0.0000  0.0000  0.0000
15807SI     SI115807   5.046   4.089   0.865  0.0000  0.0000  0.0000
15808SI     SI115808   3.227   5.456   8.414  0.0000  0.0000  0.0000
15809SI     SI115809   7.295   2.342   8.828  0.0000  0.0000  0.0000
15810SI     SI115810   7.292   4.955   0.333  0.0000  0.0000  0.0000
15811SI     SI115811   0.528   2.182   0.017  0.0000  0.0000  0.0000
15812SI     SI115812   8.650   3.602   0.476  0.0000  0.0000  0.0000
15813SI     SI115813   5.539   8.982   0.358  0.0000  0.0000  0.0000
15814SI     SI115814   3.449   6.219   0.970  0.0000  0.0000  0.0000
15815SI     SI115815   8.089   5.700   0.506  0.0000  0.0000  0.0000
15816SI     SI115816   5.245   6.936   0.472  0.0000  0.0000  0.0000
15817SI     SI115817   3.561   1.411   8.598  0.0000  0.0000  0.0000
15818SI     SI115818   5.851   7.052   9.073  0.0000  0.0000  0.0000
15819SI     SI115819   3.172   2.663   0.264  0.0000  0.0000  0.0000
15820SI     SI115820   3.145   1.629   0.717  0.0000  0.0000  0.0000
15821SI     SI115821   3.253   3.997   0.071  0.0000  0.0000  0.0000
15822SI     SI115822   8.002   5.694   0.208  0.0000  0.0000  0.0000
15823SI     SI115823   2.704   3.787   1.040  0.0000  0.0000  0.0000
15824SI     SI115824   9.277   7.015   9.133  0.0000  0.0000  0.0000
15825SI     SI115825   3.530   5.031   0.528  0.0000  0.0000  0.0000
15826SI     SI115826   5.874   1.843   1.403  0.0000  0.0000  0.0000
15827SI     SI115827   3.943   4.826   0.767  0.0000  0.0000  0.0000
15828SI     SI115828   1.428   5.176   9.131  0.0000  0.0000  0.0000
15829SI     SI115829   2.409   4.760   0.520  0.0000  0.0000  0.0000
15830SI     SI115830   4.819   3.679   0.417  0.0000  0.0000  0.0000
15831SI     SI115831   3.171   9.288   8.788  0.0000  0.0000  0.0000
15832SI     SI115832   3.364   7.495   8.500  0.0000  0.0000  0.0000
15833SI     SI115833   6.859   0.682   9.501  0.0000  0.0000  0.0000
15834SI     SI115834   1.644   6.247   8.721  0.0000  0.0000  0.0000
15835SI     SI115835   1.036   3.204   9.498  0.0000  0.0000  0.0000
15836SI     SI115836   1.489   2.061   0.109  0.0000  0.0000  0.0000
15837SI     SI115837   4.128   9.476   1.205  0.0000  0.0000  0.0000
15838SI     SI115838   7.892   8.186   8.492  0.0000  0.0000  0.0000
15839SI     SI115839   0.750   8.710   9.162  0.0000  0.0000  0.0000
15840SI     SI115840   9.316   0.284   8.402  0.0000  0.0000  0.0000
15841SI     SI115841   3.977   6.069   9.186  0.0000  0.0000  0.0000
15842SI     SI115842   5.566   9.239   9.485  0.0000  0.0000  0.0000
15843SI     SI115843   7.211   9.511   9.089  0.0000  0.0000  0.0000
15844SI     SI115844   2.366   8.101   8.605  0.0000  0.0000  0.0000
15845SI     SI115845   8.768   4.023   0.872  0.0000  0.0000  0.0000
15846SI     SI115846   6.230   6.048   8.865  0.0000  0.0000  0.0000
15847SI     SI115847   6.816   9.272   0.802  0.0000  0.0000  0.0000
15848SI     SI115848   7.008   3.773   8.549  0.0000  0.0000  0.0000
15849SI     SI115849   6.975   4.345   0.261  0.0000  0.0000  0.0000
15850SI     SI115850   7.458   6.400   8.977  0.0000  0.0000  0.0000
15851SI     SI115851   8.252   6.161   1.272  0.0000  0.0000  0.0000
15852SI     SI115852   3.155   9.584   1.132  0.0000  0.0000  0.0000
15853SI     SI115853   6.970   6.509   0.553  0.0000  0.0000  0.0000
15854SI     SI115854   9.430   4.190   1.424  0.0000  0.0000  0.0000
15855SI     SI115855   2.748   7.353   0.844  0.0000  0.0000  0.0000
15856SI     SI115856   9.401   6.888   9.380  0.0000  0.0000  0.0000
15857SI     SI115857   4.850   7.268   9.414  0.0000  0.0000  0.0000
15858SI     SI115858   4.807   6.975   0.209  0.0000  0.0000  0.0000
15859SI     SI115859   9.053   1.415   8.740  0.0000  0.0000  0.0000
15860SI     SI115860   6.027   3.729   0.976  0.0000  0.0000  0.0000
15861SI     SI115861   1.276   1.097   0.221  0.0000  0.0000  0.0000
15862SI     SI115862   1.028   2.025   1.033  0.0000  0.0000  0.0000
15863SI     SI115863   9.309   5.566   8.624  0.0000  0.0000  0.0000
15864SI     SI115864   7.592   5.092   0.865  0.0000  0.0000  0.0000
15865SI     SI115865   2.438   6.006   1.112  0.0000  0.0000  0.0000
15866SI     SI115866   2.200   0.151   9.314  0.0000  0.0000  0.0000
15867SI     SI115867   8.979   3.128   0.772  0.0000  0.0000  0.0000
15868SI     SI115868   8.932   9.394   0.156  0.0000  0.0000  0.0000
15869SI     SI115869   7.603   4.176   0.534  0.0000  0.0000  0.0000
15870SI     SI115870   1.774   6.872   9.541  0.0000  0.0000  0.0000
15871SI     SI115871   8.891   4.214   1.083  0.0000  0.0000  0.0000
15872SI     SI115872   9.506   7.511   8.673  0.0000  0.0000  0.0000
15873SI     SI115873   4.404   0.172   1.119  0.0000  0.0000  0.0000
15874SI     SI115874   5.282   8.458   9.225  0.0000  0.0000  0.0000
15875SI     SI115875   9.099   7.195   0.341  0.0000  0.0000  0.0000
15876SI     SI115876   6.268   8.060   8.479  0.0000  0.0000  0.0000
15877SI     SI115877   8.887   3.277   9.244  0.0000  0.0000  0.0000
15878SI     SI115878   5.242   2.234   0.343  0.0000  0.0000  0.0000
15879SI     SI115879   7.269   3.120   8.384  0.0000  0.0000  0.0000
15880SI     SI115880   6.294   4.614   9.144  0.0000  0.0000  0.0000
15881SI     SI115881   4.541   3.510   0.190  0.0000  0.0000  0.0000
15882SI     SI115882   7.780   6.802   8.298  0.0000  0.0000  0.0000
15883SI     SI115883   1.426   1.761   1.126  0.0000  0.0000  0.0000
15884SI     SI115884   0.116   3.073   8.588  0.0000  0.0000  0.0000
15885SI     SI115885   0.171   8.877   0.104  0.0000  0.0000  0.0000
15886SI     SI115886   6.877   2.358   9.162  0.0000  0.0000  0.0000
15887SI     SI115887   3.677   6.637   8.320  0.0000  0.0000  0.0000
15888SI     SI115888   6.948   4.409   0.561  0.0000  0.0000  0.0000
15889SI     SI115889   5.222   5.101   8.387  0.0000  0.0000  0.0000
15890SI     SI115890   3.696   6.992   8.721  0.0000  0.0000  0.0000
15891SI     SI115891   2.420   8.796   9.299  0.0000  0.0000  0.0000
15892SI     SI115892   8.655   2.641   0.735  0.0000  0.0000  0.0000
15893SI     SI115893   2.886   5.817   0.435  0.0000  0.0000  0.0000
15894SI     SI115894   6.141   0.783   8.693  0.0000  0.0000  0.0000
15895SI     SI115895   8.420   1.310   0.990  0.0000  0.0000  0.0000
15896SI     SI115896   5.072   4.839   8.812  0.0000  0.0000  0.0000
15897SI     SI115897   1.295   2.450   9.233  0.0000  0.0000  0.0000
15898SI     SI115898   8.692   6.574   0.627  0.0000  0.0000  0.0000
15899SI     SI115899   4.816   6.156   0.386  0.0000  0.0000  0.0000
15900SI     SI115900   2.010   7.400   9.177  0.0000  0.0000  0.0000
15901SI     SI115901   3.806   5.896   8.577  0.0000  0.0000  0.0000
15902SI     SI115902   7.332   9.193   1.094  0.0000  0.0000  0.0000
15903SI     SI115903   2.349   2.493   0.778  0.0000  0.0000  0.0000
15904SI     SI115904   1.375   9.603   0.485  0.0000  0.0000  0.0000
15905SI     SI115905   4.551   5.226   0.307  0.0000  0.0000  0.0000
15906SI     SI115906   4.371   4.301   8.555  0.0000  0.0000  0.0000
15907SI     SI115907   7.931   1.266   0.627  0.0000  0.0000  0.0000
15908SI     SI115908   4.282   4.313   0.054  0.0000  0.0000  0.0000
15909SI     SI115909   6.827   4.463   8.990  0.0000  0.0000  0.0000
15910SI     SI115910   3.871   6.473   1.006  0.0000  0.0000  0.0000
15911SI     SI115911   0.614   4.190   9.298  0.0000  0.0000  0.0000
15912SI     SI115912   5.391   6.520   9.465  0.0000  0.0000  0.0000
15913SI     SI115913   2.224   5.234   8.755  0.0000  0.0000  0.0000
15914SI     SI115914   8.472   0.020   0.831  0.0000  0.0000  0.0000
15915SI     SI115915   4.291   6.905   9.269  0.0000  0.0000  0.0000
15916SI     SI115916   7.045   5.103   0.204  0.0000  0.0000  0.0000
15917SI     SI115917   0.774   8.734   1.098  0.0000  0.0000  0.0000
15918SI     SI115918   1.298   0.205   0.989  0.0000  0.0000  0.0000
15919SI     SI115919   9.137   7.539   0.637  0.0000  0.0000  0.0000
15920SI     SI115920   2.432   1.042   9.106  0.0000  0.0000  0.0000
15921SI     SI115921   1.230   2.139   0.548  0.0000  0.0000  0.0000
15922SI     SI115922   1.822   4.198   0.625  0.0000  0.0000  0.0000
15923SI     SI115923   8.303   9.528   0.044  0.0000  0.0000  0.0000
15924SI     SI115924   6.333   1.444   0.616  0.0000  0.0000  0.0000
15925SI     SI115925   4.071   8.518   0.431  0.0000  0.0000  0.0000
15926SI     SI115926   0.916   4.216   0.117  0.0000  0.0000  0.0000
15927SI     SI115927   7.393   3.030   0.807  0.0000  0.0000  0.0000
15928SI     SI115928   8.923   8.998   8.763  0.0000  0.0000  0.0000
15929SI     SI115929   8.397   2.815   8.326  0.0000  0.0000  0.0000
15930SI     SI115930   3.018   5.695   9.041  0.0000  0.0000  0.0000
15931SI     SI115931   4.842   7.282   8.666  0.0000  0.0000  0.0000
15932SI     SI115932   0.388   8.016   0.278  0.0000  0.0000  0.0000
15933SI     SI115933   5.968   2.702   8.603  0.0000  0.0000  0.0000
15934SI     SI115934   3.166   6.753   8.528  0.0000  0.0000  0.0000
15935SI     SI115935   1.445   2.648   1.112  0.0000  0.0000  0.0000
15936SI     SI115936   1.515   8.092   0.796  0.0000  0.0000  0.0000
15937SI     SI115937   1.802   2.345   0.806  0.0000  0.0000  0.0000
15938SI     SI115938   5.751   2.283   8.488  0.0000  0.0000  0.0000
15939SI     SI115939   0.647   2.275   0.773  0.0000  0.0000  0.0000
15940SI     SI115940   0.937   4.412   1.220  0.0000  0.0000  0.0000
15941SI     SI115941   2.675   5.107   0.025  0.0000  0.0000  0.0000
15942SI     SI115942   2.219   7.486   0.537  0.0000  0.0000  0.0000
15943SI     SI115943   0.889   8.424   9.160  0.0000  0.0000  0.0000
15944SI     SI115944   8.741   0.560   1.030  0.0000  0.0000  0.0000
15945SI     SI115945   5.872   1.204   8.695  0.0000  0.0000  0.0000
15946SI     SI115946   8.424   8.050   9.044  0.0000  0.0000  0.0000
15947SI     SI115947   5.499   6.624   1.389  0.0000  0.0000  0.0000
15948SI     SI115948   5.572   7.485   9.486  0.0000  0.0000  0.0000
15949SI     SI115949   6.838   1.698   0.547  0.0000  0.0000  0.0000
15950SI     SI115950   8.509   7.471   8.476  0.0000  0.0000  0.0000
15951SI     SI115951   7.048   6.047   8.398  0.0000  0.0000  0.0000
15952SI     SI115952   7.772   3.885   0.122  0.0000  0.0000  0.0000
15953SI     SI115953   5.369   0.567   8.837  0.0000  0.0000  0.0000
15954SI     SI115954   7.295   2.536   9.370  0.0000  0.0000  0.0000
15955SI     SI115955   2.454   7.594   8.390  0.0000  0.0000  0.0000
15956SI     SI115956   2.379   2.851   0.101  0.0000  0.0000  0.0000
15957SI     SI115957   0.425   4.873   9.574  0.0000  0.0000  0.0000
15958SI     SI115958   2.682   8.641   0.678  0.0000  0.0000  0.0000
15959SI     SI115959   4.531   2.185   0.324  0.0000  0.0000  0.0000
15960SI     SI115960   3.784   7.435   8.610  0.0000  0.0000  0.0000
15961SI     SI115961   2.696   7.760   8.774  0.0000  0.0000  0.0000
15962SI     SI115962   0.239   1.910   0.847  0.0000  0.0000  0.0000
15963SI     SI115963   6.271   4.349   9.512  0.0000  0.0000  0.0000
15964SI     SI115964   8.257   7.162   1.071  0.0000  0.0000  0.0000
15965SI     SI115965   9.021   0.992   9.023  0.0000  0.0000  0.0000
15966SI     SI115966   1.301   2.207   8.519  0.0000  0.0000  0.0000
15967SI     SI115967   3.183   4.002   0.466  0.0000  0.0000  0.0000
15968SI     SI115968   9.470   4.731   0.875  0.0000  0.0000  0.0000
15969SI     SI115969   6.589   3.545   0.878  0.0000  0.0000  0.0000
15970SI     SI115970   5.784   5.972   1.085  0.0000  0.0000  0.0000
15971SI     SI115971   5.432   7.021   0.845  0.0000  0.0000  0.0000
15972SI     SI115972   8.831   8.120   0.886  0.0000  0.0000  0.0000
15973SI     SI115973   6.411   0.417   0.914  0.0000  0.0000  0.0000
15974SI     SI115974   0.786   3.439   0.489  0.0000  0.0000  0.0000
15975SI     SI115975   5.567   1.184   8.712  0.0000  0.0000  0.0000
15976SI     SI115976   1.631   3.098   8.225  0.0000  0.0000  0.0000
15977SI     SI115977   1.023   8.649   0.515  0.0000  0.0000  0.0000
15978SI     SI115978   2.134   4.731   0.147  0.0000  0.0000  0.0000
15979SI     SI115979   4.874   1.552   0.848  0.0000  0.0000  0.0000
15980SI     SI115980   3.775   5.882   0.422  0.0000  0.0000  0.0000
15981SI     SI115981   6.393   1.165   1.258  0.0000  0.0000  0.0000
15982SI     SI115982   4.590   0.716   8.438  0.0000  0.0000  0.0000
15983SI     SI115983   3.533   0.660   0.434  0.0000  0.0000  0.0000
15984SI     SI115984   1.834   6.647   0.138  0.0000  0.0000  0.0000
15985SI     SI115985   7.967   2.314   9.150  0.0000  0.0000  0.0000
15986SI     SI115986   8.193   6.967   0.861  0.0000  0.0000  0.0000
15987SI     SI115987   3.003   5.601   0.864  0.0000  0.0000  0.0000
15988SI     SI115988   5.254   5.920   8.420  0.0000  0.0000  0.0000
15989SI     SI115989   3.864   8.789   8.665  0.0000  0.0000  0.0000
15990SI     SI115990   3.830   2.127   0.265  0.0000  0.0000  0.0000
15991SI     SI115991   8.432   6.926   0.302  0.0000  0.0000  0.0000
15992SI     SI115992   7.347   8.437   0.177  0.0000  0.0000  0.0000
15993SI     SI115993   2.866   1.657   8.538  0.0000  0.0000  0.0000
15994SI     SI115994   6.890   3.652   9.442  0.0000  0.0000  0.0000
15995SI     SI115995   8.697   6.068   1.013  0.0000  0.0000  0.0000
15996SI     SI115996   6.477   5.955   9.231  0.0000  0.0000  0.0000
15997SI     SI115997   6.834   1.480   0.768  0.0000  0.0000  0.0000
15998SI     SI115998   9.379   3.771   9.575  0.0000  0.0000  0.0000
15999SI     SI115999   7.077   8.400   8.551  0.0000  0.0000  0.0000
16000SI     SI116000   8.612   5.119   0.785  0.0000  0.0000  0.0000
16001SI     SI116001   4.582   5.111   9.389  0.0000  0.0000  0.0000
16002SI     SI116002   6.300   7.187   8.999  0.0000  0.0000  0.0000
16003SI     SI116003   2.901   5.441   1.118  0.0000  0.0000  0.0000
16004SI     SI116004   3.059   1.480   0.325  0.0000  0.0000  0.0000
16005SI     SI116005   2.272   2.673   8.948  0.0000  0.0000  0.0000
16006SI     SI116006   5.069   8.767   0.567  0.0000  0.0000  0.0000
16007SI     SI116007   2.919   5.199   9.448  0.0000  0.0000  0.0000
16008SI     SI116008   2.460   3.023   0.783  0.0000  0.0000  0.0000
16009SI     SI116009   5.674   7.953   9.540  0.0000  0.0000  0.0000
16010SI     SI116010   0.165   0.304   0.315  0.0000  0.0000  0.0000
16011SI     SI116011   3.862   9.541   0.814  0.0000  0.0000  0.0000
16012SI     SI116012   4.178   0.366   0.742  0.0000  0.0000  0.0000
16013SI     SI116013   6.248   6.289   1.042  0.0000  0.0000  0.0000
16014SI     SI116014   4.285   1.895   0.603  0.0000  0.0000  0.0000
16015SI     SI116015   2.854   7.492   0.507  0.0000  0.0000  0.0000
16016SI     SI116016   4.825   9.486   8.484  0.0000  0.0000  0.0000
16017SI     SI116017   2.411   1.862   0.640  0.0000  0.0000  0.0000
16018SI     SI116018   8.605   1.306   0.565  0.0000  0.0000  0.0000
16019SI     SI116019   6.608   9.114   0.369  0.0000  0.0000  0.0000
16020SI     SI116020   1.450   3.224   8.657  0.0000  0.0000  0.0000
16021SI     SI116021   5.674   6.136   0.873  0.0000  0.0000  0.0000
16022SI     SI116022   0.358   9.191   8.754  0.0000  0.0000  0.0000
16023SI     SI116023   4.172   6.318   8.604  0.0000  0.0000  0.0000
16024SI     SI116024   5.465   3.958   0.286  0.0000  0.0000  0.0000
16025SI     SI116025   7.079   4.682   8.673  0.0000  0.0000  0.0000
16026SI     SI116026   4.151   4.480   8.245  0.0000  0.0000  0.0000
16027SI     SI116027   4.728   5.109   8.448  0.0000  0.0000  0.0000
16028SI     SI116028   9.544   0.155   0.895  0.0000  0.0000  0.0000
16029SI     SI116029   1.881   4.768   0.604  0.0000  0.0000  0.0000
16030SI     SI116030   2.454   3.322   8.631  0.0000  0.0000  0.0000
16031SI     SI116031   2.811   3.735   0.256  0.0000  0.0000  0.0000
16032SI     SI116032   7.080   7.575   0.780  0.0000  0.0000  0.0000
16033SI     SI116033   1.075   8.597   8.567  0.0000  0.0000  0.0000
16034SI     SI116034   3.887   7.150   9.331  0.0000  0.0000  0.0000
16035SI     SI116035   1.840   6.801   0.408  0.0000  0.0000  0.0000
16036SI     SI116036   2.489   4.617   8.773  0.0000  0.0000  0.0000
16037SI     SI116037   0.633   7.258   9.431  0.0000  0.0000  0.0000
16038SI     SI116038   5.533   1.164   9.472  0.0000  0.0000  0.0000
16039SI     SI116039   6.933   6.968   0.157  0.0000  0.0000  0.0000
16040SI     SI116040   5.832   3.259   9.442  0.0000  0.0000  0.0000
16041SI     SI116041   7.317   1.144   8.511  0.0000  0.0000  0.0000
16042SI     SI116042   2.922   1.510   1.133  0.0000  0.0000  0.0000
16043SI     SI116043   7.485   2.027   0.237  0.0000  0.0000  0.0000
16044SI     SI116044   6.864   5.204   8.433  0.0000  0.0000  0.0000
16045SI     SI116045   2.252   8.096   9.298  0.0000  0.0000  0.0000
16046SI     SI116046   3.510   8.955   0.303  0.0000  0.0000  0.0000
16047SI     SI116047   6.781   0.525   0.597  0.0000  0.0000  0.0000
16048SI     SI116048   6.979   6.083   8.845  0.0000  0.0000  0.0000
16049SI     SI116049   8.676   6.842   9.086  0.0000  0.0000  0.0000
16050SI     SI116050   8.223   5.448   8.751  0.0000  0.0000  0.0000
16051SI     SI116051   3.615   6.714   8.613  0.0000  0.0000  0.0000
16052SI     SI116052   2.852   8.007   8.676  0.0000  0.0000  0.0000
16053SI     SI116053   7.220   7.346   8.699  0.0000  0.0000  0.0000
16054SI     SI116054   8.207   8.928   1.330  0.0000  0.0000  0.0000
16055SI     SI116055   8.416   5.361   0.802  0.0000  0.0000  0.0000
16056SI     SI116056   8.458   2.819   9.213  0.0000  0.0000  0.0000
16057SI     SI116057   4.769   4.444   8.842  0.0000  0.0000  0.0000
16058SI     SI116058   8.381   8.041   9.343  0.0000  0.0000  0.0000
16059SI     SI116059   5.934   2.421   1.237  0.0000  0.0000  0.0000
16060SI     SI116060   5.136   4.405   1.148  0.0000  0.0000  0.0000
16061SI     SI116061   0.116   3.115   8.901  0.0000  0.0000  0.0000
16062SI     SI116062   6.905   3.567   0.876  0.0000  0.0000  0.0000
16063SI     SI116063   1.526   1.837   8.256  0.0000  0.0000  0.0000
16064SI     SI116064   6.413   3.360   8.672  0.0000  0.0000  0.0000
16065SI     SI116065   3.354   8.802   0.688  0.0000  0.0000  0.0000
16066SI     SI116066   2.823   6.197   8.759  0.0000  0.0000  0.0000
16067SI     SI116067   4.057   7.659   9.200  0.0000  0.0000  0.0000
16068SI     SI116068   6.606   9.088   0.924  0.0000  0.0000  0.0000
16069SI     SI116069   5.031   5.087   0.116  0.0000  0.0000  0.0000
16070SI     SI116070   2.444   0.920   9.599  0.0000  0.0000  0.0000
16071SI     SI116071   1.727   1.469   9.066  0.0000  0.0000  0.0000
16072SI     SI116072   8.096   3.884   0.539  0.0000  0.0000  0.0000
16073SI     SI116073   7.138   4.271   0.729  0.0000  0.0000  0.0000
16074SI     SI116074   7.758   6.777   1.041  0.0000  0.0000  0.0000
16075SI     SI116075   0.176   2.235   8.997  0.0000  0.0000  0.0000
16076SI     SI116076   4.236   7.829   0.583  0.0000  0.0000  0.0000
16077SI     SI116077   2.359   8.507   9.386  0.0000  0.0000  0.0000
16078SI     SI116078   6.307   0.181   9.156  0.0000  0.0000  0.0000
16079SI     SI116079   2.566   5.318   0.187  0.0000  0.0000  0.0000
16080SI     SI116080   0.404   8.913   0.853  0.0000  0.0000  0.0000
16081SI     SI116081   2.474   0.725   8.451  0.0000  0.0000  0.0000
16082SI     SI116082   3.036   8.147   1.222  0.0000  0.0000  0.0000
16083SI     SI116083   2.748   4.925   9.135  0.0000  0.0000  0.0000
16084SI     SI116084   1.056   2.243   0.318  0.0000  0.0000  0.0000
16085SI     SI116085   4.930   8.125   9.213  0.0000  0.0000  0.0000
16086SI     SI116086   2.933   2.997   9.267  0.0000  0.0000  0.0000
16087SI     SI116087   4.224   8.639   0.908  0.0000  0.0000  0.0000
16088SI     SI116088   5.265   6.510   0.852  0.0000  0.0000  0.0000
16089SI     SI116089   8.958   1.123   8.750  0.0000  0.0000  0.0000
16090SI     SI116090   8.020   5.826   9.378  0.0000  0.0000  0.0000
16091SI     SI116091   8.094   0.735   0.808  0.0000  0.0000  0.0000
16092SI     SI116092   8.534   3.577   8.399  0.0000  0.0000  0.0000
16093SI     SI116093   9.464   0.083   9.588  0.0000  0.0000  0.0000
16094SI     SI116094   0.844   1.672   8.844  0.0000  0.0000  0.0000
16095SI     SI116095   7.764   8.150   0.111  0.0000  0.0000  0.0000
16096SI     SI116096   7.736   5.162   9.074  0.0000  0.0000  0.0000
16097SI     SI116097   5.608   2.720   0.225  0.0000  0.0000  0.0000
16098SI     SI116098   5.575   8.236   8.448  0.0000  0.0000  0.0000
16099SI     SI116099   6.132   1.870   9.248  0.0000  0.0000  0.0000
16100SI     SI116100   0.856   0.389   9.550  0.0000  0.0000  0.0000
16101SI     SI116101   4.390   8.829   0.562  0.0000  0.0000  0.0000
16102SI     SI116102   2.138   6.734   1.143  0.0000  0.0000  0.0000
16103SI     SI116103   2.793   9.605   0.085  0.0000  0.0000  0.0000
16104SI     SI116104   4.904   5.360   8.789  0.0000  0.0000  0.0000
16105SI     SI116105   6.839   2.211   0.031  0.0000  0.0000  0.0000
16106SI     SI116106   7.782   5.212   0.167  0.0000  0.0000  0.0000
16107SI     SI116107   1.385   4.950   8.926  0.0000  0.0000  0.0000
16108SI     SI116108   8.324   4.095   0.541  0.0000  0.0000  0.0000
16109SI     SI116109   8.963   8.283   0.202  0.0000  0.0000  0.0000
16110SI     SI116110   8.582   6.429   8.516  0.0000  0.0000  0.0000
16111SI     SI116111   0.716   4.476   0.785  0.0000  0.0000  0.0000
16112SI     SI116112   7.846   4.199   8.202  0.0000  0.0000  0.0000
16113SI     SI116113   6.612   7.498   8.932  0.0000  0.0000  0.0000
16114SI     SI116114   7.118   7.060   9.527  0.0000  0.0000  0.0000
16115SI     SI116115   8.921   3.904   0.112  0.0000  0.0000  0.0000
16116SI     SI116116   8.367   7.669   0.857  0.0000  0.0000  0.0000
16117SI     SI116117   3.739   4.724   9.389  0.0000  0.0000  0.0000
16118SI     SI116118   5.363   6.873   0.180  0.0000  0.0000  0.0000
16119SI     SI116119   5.902   0.002   0.114  0.0000  0.0000  0.0000
16120SI     SI116120   3.272   4.886   0.450  0.0000  0.0000  0.0000
16121SI     SI116121   5.871   6.580   8.532  0.0000  0.0000  0.0000
16122SI     SI116122   2.789   1.755   1.022  0.0000  0.0000  0.0000
16123SI     SI116123   7.190   4.922   0.629  0.0000  0.0000  0.0000
16124SI     SI116124   9.023   1.329   1.075  0.0000  0.0000  0.0000
16125SI     SI116125   4.471   6.052   0.594  0.0000  0.0000  0.0000
16126SI     SI116126   7.833   7.516   1.065  0.0000  0.0000  0.0000
16127SI     SI116127   6.348   6.855   0.655  0.0000  0.0000  0.0000
16128SI     SI116128   8.665   2.146   8.623  0.0000  0.0000  0.0000
16129SI     SI116129   7.591   9.576   9.413  0.0000  0.0000  0.0000
16130SI     SI116130   5.514   6.995   1.140  0.0000  0.0000  0.0000
16131SI     SI116131   6.078   5.379   1.205  0.0000  0.0000  0.0000
16132SI     SI116132   0.332   8.318   8.592  0.0000  0.0000  0.0000
16133SI     SI116133   7.456   3.765   1.188  0.0000  0.0000  0.0000
16134SI     SI116134   2.047   5.427   0.685  0.0000  0.0000  0.0000
16135SI     SI116135   6.280   8.777   0.341  0.0000  0.0000  0.0000
16136SI     SI116136   7.421   5.340   1.236  0.0000  0.0000  0.0000
16137SI     SI116137   2.792   8.488   0.930  0.0000  0.0000  0.0000
16138SI     SI116138   1.659   7.867   0.968  0.0000  0.0000  0.0000
16139SI     SI116139   7.543   0.863   8.871  0.0000  0.0000  0.0000
16140SI     SI116140   0.728   1.781   9.339  0.0000  0.0000  0.0000
16141SI     SI116141   6.644   7.835   0.389  0.0000  0.0000  0.0000
16142SI     SI116142   5.359   7.229   0.487  0.0000  0.0000  0.0000
16143SI     SI116143   3.956   3.754   0.455  0.0000  0.0000  0.0000
16144SI     SI116144   7.643   6.014   1.012  0.0000  0.0000  0.0000
16145SI     SI116145   0.281   3.602   0.118  0.0000  0.0000  0.0000
16146SI     SI116146   4.736   7.344   1.053  0.0000  0.0000  0.0000
16147SI     SI116147   6.103   4.565   9.386  0.0000  0.0000  0.0000
16148SI     SI116148   4.197   4.812   1.096  0.0000  0.0000  0.0000
16149SI     SI116149   5.104   2.545   0.575  0.0000  0.0000  0.0000
16150SI     SI116150   1.050   4.847   9.422  0.0000  0.0000  0.0000
16151SI     SI116151   7.611   7.175   0.154  0.0000  0.0000  0.0000
16152SI     SI116152   6.640   5.425   1.141  0.0000  0.0000  0.0000
16153SI     SI116153   4.580   0.813   0.770  0.0000  0.0000  0.0000
16154SI     SI116154   0.370   0.292   0.718  0.0000  0.0000  0.0000
16155SI     SI116155   0.853   1.394   8.438  0.0000  0.0000  0.0000
16156SI     SI116156   1.352   8.560   9.430  0.0000  0.0000  0.0000
16157SI     SI116157   1.738   6.403   0.979  0.0000  0.0000  0.0000
16158SI     SI116158   9.259   8.492   9.454  0.0000  0.0000  0.0000
16159SI     SI116159   6.001   7.353   0.260  0.0000  0.0000  0.0000
16160SI     SI116160   7.660   7.515   9.468  0.0000  0.0000  0.0000
16161SI     SI116161   2.841   4.381   1.125  0.0000  0.0000  0.0000
16162SI     SI116162   5.729   2.243   8.862  0.0000  0.0000  0.0000
16163SI     SI116163   7.350   6.134   0.084  0.0000  0.0000  0.0000
16164SI     SI116164   6.545   8.497   9.437  0.0000  0.0000  0.0000
16165SI     SI116165   9.257   3.123   8.963  0.0000  0.0000  0.0000
16166SI     SI116166   7.621   9.203   9.079  0.0000  0.0000  0.0000
16167SI     SI116167   9.385   4.447   8.481  0.0000  0.0000  0.0000
16168SI     SI116168   1.013   8.008   8.894  0.0000  0.0000  0.0000
16169SI     SI116169   5.654   2.666   8.161  0.0000  0.0000  0.0000
16170SI     SI116170   6.346   4.021   0.392  0.0000  0.0000  0.0000
16171SI     SI116171   4.471   3.578   0.914  0.0000  0.0000  0.0000
16172SI     SI116172   0.537   1.288   9.103  0.0000  0.0000  0.0000
16173SI     SI116173   0.666   7.505   8.926  0.0000  0.0000  0.0000
16174SI     SI116174   4.991   6.391   0.739  0.0000  0.0000  0.0000
16175SI     SI116175   3.069   2.886   9.518  0.0000  0.0000  0.0000
16176SI     SI116176   5.422   2.276   1.221  0.0000  0.0000  0.0000
16177SI     SI116177   5.269   5.553   0.860  0.0000  0.0000  0.0000
16178SI     SI116178   5.389   8.719   8.382  0.0000  0.0000  0.0000
16179SI     SI116179   8.476   4.453   0.767  0.0000  0.0000  0.0000
16180SI     SI116180   5.177   8.068   9.354  0.0000  0.0000  0.0000
16181SI     SI116181   0.370   2.866   0.455  0.0000  0.0000  0.0000
16182SI     SI116182   4.474   0.100   0.332  0.0000  0.0000  0.0000
16183SI     SI116183   0.738   0.969   8.377  0.0000  0.0000  0.0000
16184SI     SI116184   0.730   1.894   0.413  0.0000  0.0000  0.0000
16185SI     SI116185   7.792   9.577   0.052  0.0000  0.0000  0.0000
16186SI     SI116186   6.533   7.007   0.849  0.0000  0.0000  0.0000
16187SI     SI116187   3.199   7.807   8.779  0.0000  0.0000  0.0000
16188SI     SI116188   1.717   5.779   8.562  0.0000  0.0000  0.0000
16189SI     SI116189   1.662   1.852   0.688  0.0000  0.0000  0.0000
16190SI     SI116190   3.878   5.358   0.656  0.0000  0.0000  0.0000
16191SI     SI116191   6.361   2.657   0.081  0.0000  0.0000  0.0000
16192SI     SI116192   8.736   0.261   0.220  0.0000  0.0000  0.0000
16193SI     SI116193   7.821   5.450   0.884  0.0000  0.0000  0.0000
16194SI     SI116194   5.911   6.224   9.458  0.0000  0.0000  0.0000
16195SI     SI116195   9.017   8.804   0.312  0.0000  0.0000  0.0000
16196SI     SI116196   4.101   7.113   0.215  0.0000  0.0000  0.0000
16197SI     SI116197   4.226   9.327   0.098  0.0000  0.0000  0.0000
16198SI     SI116198   1.633   7.356   9.593  0.0000  0.0000  0.0000
16199SI     SI116199   9.071   2.595   0.618  0.0000  0.0000  0.0000
16200SI     SI116200   8.541   0.767   9.200  0.0000  0.0000  0.0000
16201SI     SI116201   8.484   1.768   0.791  0.0000  0.0000  0.0000
16202SI     SI116202   5.332   7.832   9.293  0.0000  0.0000  0.0000
16203SI     SI116203   9.216   0.606   9.228  0.0000  0.0000  0.0000
16204SI     SI116204   1.782   0.496   8.395  0.0000  0.0000  0.0000
16205SI     SI116205   6.457   1.116   0.950  0.0000  0.0000  0.0000
16206SI     SI116206   2.127   1.356   0.069  0.0000  0.0000  0.0000
16207SI     SI116207   1.436   3.346   0.069  0.0000  0.0000  0.0000
16208SI     SI116208   0.931   7.660   9.355  0.0000  0.0000  0.0000
16209SI     SI116209   8.495   1.304   8.928  0.0000  0.0000  0.0000
16210SI     SI116210   6.790   2.658   1.339  0.0000  0.0000  0.0000
16211SI     SI116211   1.921   0.638   1.081  0.0000  0.0000  0.0000
16212SI     SI116212   0.979   5.423   0.081  0.0000  0.0000  0.0000
16213SI     SI116213   4.804   5.043   0.312  0.0000  0.0000  0.0000
16214SI     SI116214   7.089   5.993   0.168  0.0000  0.0000  0.0000
16215SI     SI116215   5.767   2.502   8.715  0.0000  0.0000  0.0000
16216SI     SI116216   2.027   0.676   9.350  0.0000  0.0000  0.0000
16217SI     SI116217   0.837   8.342   8.662  0.0000  0.0000  0.0000
16218SI     SI116218   8.604   8.554   8.951  0.0000  0.0000  0.0000
16219SI     SI116219   3.341   0.973   9.422  0.0000  0.0000  0.0000
16220SI     SI116220   8.545   3.546   9.091  0.0000  0.0000  0.0000
16221SI     SI116221   7.009   0.040   8.888  0.0000  0.0000  0.0000
16222SI     SI116222   9.597   4.820   0.596  0.0000  0.0000  0.0000
16223SI     SI116223   2.934   0.948   9.189  0.0000  0.0000  0.0000
16224SI     SI116224   2.433   4.708   0.230  0.0000  0.0000  0.0000
16225SI     SI116225   8.286   9.549   0.456  0.0000  0.0000  0.0000
16226SI     SI116226   6.191   8.427   1.381  0.0000  0.0000  0.0000
16227SI     SI116227   4.084   0.581   8.385  0.0000  0.0000  0.0000
16228SI     SI116228   8.869   3.921   8.856  0.0000  0.0000  0.0000
16229SI     SI116229   4.529   9.037   0.389  0.0000  0.0000  0.0000
16230SI     SI116230   7.236   3.779   0.729  0.0000  0.0000  0.0000
16231SI     SI116231   3.119   8.268   9.418  0.0000  0.0000  0.0000
16232SI     SI116232   5.705   2.216   1.255  0.0000  0.0000  0.0000
16233SI     SI116233   6.752   6.725   0.239  0.0000  0.0000  0.0000
16234SI     SI116234   5.638   4.087   0.649  0.0000  0.0000  0.0000
16235SI     SI116235   0.588   8.743   8.427  0.0000  0.0000  0.0000
16236SI     SI116236   6.838   9.235   0.507  0.0000  0.0000  0.0000
16237SI     SI116237   8.466   8.575   1.086  0.0000  0.0000  0.0000
16238SI     SI116238   7.098   5.342   8.862  0.0000  0.0000  0.0000
16239SI     SI116239   4.688   8.548   1.162  0.0000  0.0000  0.0000
16240SI     SI116240   6.687   6.071   9.418  0.0000  0.0000  0.0000
16241SI     SI116241   7.427   4.838   0.823  0.0000  0.0000  0.0000
16242SI     SI116242   5.481   6.331   9.253  0.0000  0.0000  0.0000
16243SI     SI116243   1.689   1.026   9.210  0.0000  0.0000  0.0000
16244SI     SI116244   1.153   5.436   0.327  0.0000  0.0000  0.0000
16245SI     SI116245   2.804   4.915   0.766  0.0000  0.0000  0.0000
16246SI     SI116246   0.658   0.489   8.336  0.0000  0.0000  0.0000
16247SI     SI116247   2.263   6.128   9.499  0.0000  0.0000  0.0000
16248SI     SI116248   5.543   4.146   0.943  0.0000  0.0000  0.0000
16249SI     SI116249   5.230   0.420   9.080  0.0000  0.0000  0.0000
16250SI     SI116250   7.173   0.480   9.167  0.0000  0.0000  0.0000
16251SI     SI116251   1.467   5.434   0.361  0.0000  0.0000  0.0000
16252SI     SI116252   0.897   6.634   0.647  0.0000  0.0000  0.0000
16253SI     SI116253   6.956   0.504   0.112  0.0000  0.0000  0.0000
16254SI     SI116254   9.385   4.114   0.978  0.0000  0.0000  0.0000
16255SI     SI116255   5.491   1.476   0.390  0.0000  0.0000  0.0000
16256SI     SI116256   3.804   1.821   0.643  0.0000  0.0000  0.0000
16257SI     SI116257   2.421   3.672   8.942  0.0000  0.0000  0.0000
16258SI     SI116258   7.635   7.001   1.228  0.0000  0.0000  0.0000
16259SI     SI116259   6.338   0.958   0.278  0.0000  0.0000  0.0000
16260SI     SI116260   1.728   1.977   9.104  0.0000  0.0000  0.0000
16261SI     SI116261   8.494   1.625   8.562  0.0000  0.0000  0.0000
16262SI     SI116262   4.588   1.259   0.184  0.0000  0.0000  0.0000
16263SI     SI116263   0.771   1.663   8.548  0.0000  0.0000  0.0000
16264SI     SI116264   7.240   1.472   9.237  0.0000  0.0000  0.0000
16265SI     SI116265   0.906   7.176   8.620  0.0000  0.0000  0.0000
16266SI     SI116266   5.752   5.342   0.387  0.0000  0.0000  0.0000
16267SI     SI116267   0.785   2.157   8.254  0.0000  0.0000  0.0000
16268SI     SI116268   6.695   2.037   8.806  0.0000  0.0000  0.0000
16269SI     SI116269   2.928   3.259   0.456  0.0000  0.0000  0.0000
16270SI     SI116270   5.459   4.480   8.576  0.0000  0.0000  0.0000
16271SI     SI116271   8.637   4.948   9.246  0.0000  0.0000  0.0000
16272SI     SI116272   0.259   7.873   0.701  0.0000  0.0000  0.0000
16273SI     SI116273   8.408   9.554   9.354  0.0000  0.0000  0.0000
16274SI     SI116274   6.640   9.385   1.262  0.0000  0.0000  0.0000
16275SI     SI116275   1.494   0.259   0.029  0.0000  0.0000  0.0000
16276SI     SI116276   5.147   2.009   0.505  0.0000  0.0000  0.0000
16277SI     SI116277   7.356   5.861   0.608  0.0000  0.0000  0.0000
16278SI     SI116278   1.352   3.535   0.913  0.0000  0.0000  0.0000
16279SI     SI116279   2.354   9.178   8.486  0.0000  0.0000  0.0000
16280SI     SI116280   6.855   7.057   1.235  0.0000  0.0000  0.0000
16281SI     SI116281   3.782   5.557   9.599  0.0000  0.0000  0.0000
16282SI     SI116282   9.033   8.836   9.009  0.0000  0.0000  0.0000
16283SI     SI116283   1.092   7.012   0.226  0.0000  0.0000  0.0000
16284SI     SI116284   7.598   2.017   1.010  0.0000  0.0000  0.0000
16285SI     SI116285   6.593   4.027   0.592  0.0000  0.0000  0.0000
16286SI     SI116286   1.003   3.668   8.955  0.0000  0.0000  0.0000
16287SI     SI116287   3.814   1.001   1.183  0.0000  0.0000  0.0000
16288SI     SI116288   1.990   5.594   8.962  0.0000  0.0000  0.0000
16289SI     SI116289   7.610   8.067   8.478  0.0000  0.0000  0.0000
16290SI     SI116290   5.672   6.151   0.051  0.0000  0.0000  0.0000
16291SI     SI116291   9.163   2.277   1.078  0.0000  0.0000  0.0000
16292SI     SI116292   3.840   6.519   9.537  0.0000  0.0000  0.0000
16293SI     SI116293   6.063   9.156   0.293  0.0000  0.0000  0.0000
16294SI     SI116294   3.347   5.397   0.664  0.0000  0.0000  0.0000
16295SI     SI116295   2.564   2.972   9.081  0.0000  0.0000  0.0000
16296SI     SI116296   0.820   0.249   8.368  0.0000  0.0000  0.0000
16297SI     SI116297   4.345   6.802   0.386  0.0000  0.0000  0.0000
16298SI     SI116298   2.161   6.106   0.569  0.0000  0.0000  0.0000
16299SI     SI116299   3.519   8.766   9.039  0.0000  0.0000  0.0000
16300SI     SI116300   0.823   4.623   8.459  0.0000  0.0000  0.0000
16301SI     SI116301   4.992   6.043   9.054  0.0000  0.0000  0.0000
16302SI     SI116302   1.387   7.233   1.206  0.0000  0.0000  0.0000
16303SI     SI116303   8.191   2.322   8.940  0.0000  0.0000  0.0000
16304SI     SI116304   0.328   6.077   8.383  0.0000  0.0000  0.0000
16305SI     SI116305   7.176   4.583   9.498  0.0000  0.0000  0.0000
16306SI     SI116306   1.605   1.753   0.432  0.0000  0.0000  0.0000
16307SI     SI116307   3.970   3.664   1.195  0.0000  0.0000  0.0000
16308SI     SI116308   4.328   4.364   9.103  0.0000  0.0000  0.0000
16309SI     SI116309   1.127   9.399   8.617  0.0000  0.0000  0.0000
16310SI     SI116310   5.065   8.690   1.084  0.0000  0.0000  0.0000
16311SI     SI116311   7.286   8.806   9.194  0.0000  0.0000  0.0000
16312SI     SI116312   4.096   6.473   9.127  0.0000  0.0000  0.0000
16313SI     SI116313   5.751   3.129   0.095  0.0000  0.0000  0.0000
16314SI     SI116314   8.336   6.702   0.107  0.0000  0.0000  0.0000
16315SI     SI116315   4.330   3.592   9.149  0.0000  0.0000  0.0000
16316SI     SI116316   0.968   8.003   0.940  0.0000  0.0000  0.0000
16317SI     SI116317   0.518   7.948   0.833  0.0000  0.0000  0.0000
16318SI     SI116318   1.159   4.285   0.510  0.0000  0.0000  0.0000
16319SI     SI116319   2.535   6.215   0.325  0.0000  0.0000  0.0000
16320SI     SI116320   2.797   2.960   8.441  0.0000  0.0000  0.0000
16321SI     SI116321   4.831   2.378   8.740  0.0000  0.0000  0.0000
16322SI     SI116322   6.805   2.939   0.464  0.0000  0.0000  0.0000
16323SI     SI116323   6.084   4.695   0.180  0.0000  0.0000  0.0000
16324SI     SI116324   4.876   5.202   9.471  0.0000  0.0000  0.0000
16325SI     SI116325   1.901   7.060   0.850  0.0000  0.0000  0.0000
16326SI     SI116326   1.530   9.091   9.585  0.0000  0.0000  0.0000
16327SI     SI116327   3.843   4.601   0.055  0.0000  0.0000  0.0000
16328SI     SI116328   5.425   9.134   8.509  0.0000  0.0000  0.0000
16329SI     SI116329   5.130   1.276   0.137  0.0000  0.0000  0.0000
16330SI     SI116330   9.369   6.515   1.206  0.0000  0.0000  0.0000
16331SI     SI116331   8.326   5.484   9.483  0.0000  0.0000  0.0000
16332SI     SI116332   9.497   1.146   9.257  0.0000  0.0000  0.0000
16333SI     SI116333   5.418   8.743   9.270  0.0000  0.0000  0.0000
16334SI     SI116334   3.081   3.706   0.420  0.0000  0.0000  0.0000
16335SI     SI116335   9.091   9.489   8.415  0.0000  0.0000  0.0000
16336SI     SI116336   3.032   2.396   9.297  0.0000  0.0000  0.0000
16337SI     SI116337   7.357   8.584   0.661  0.0000  0.0000  0.0000
16338SI     SI116338   7.833   0.143   0.455  0.0000  0.0000  0.0000
16339SI     SI116339   8.031   3.571   9.200  0.0000  0.0000  0.0000
16340SI     SI116340   7.887   6.944   0.806  0.0000  0.0000  0.0000
16341SI     SI116341   4.201   5.081   0.967  0.0000  0.0000  0.0000
16342SI     SI116342   5.937   7.012   9.555  0.0000  0.0000  0.0000
16343SI     SI116343   0.670   6.087   0.369  0.0000  0.0000  0.0000
16344SI     SI116344   7.955   8.947   0.620  0.0000  0.0000  0.0000
16345SI     SI116345   6.152   3.867   9.293  0.0000  0.0000  0.0000
16346SI     SI116346   8.406   4.050   0.034  0.0000  0.0000  0.0000
16347SI     SI116347   3.562   7.740   0.533  0.0000  0.0000  0.0000
16348SI     SI116348   7.657   0.884   0.927  0.0000  0.0000  0.0000
16349SI     SI116349   5.521   4.953   0.642  0.0000  0.0000  0.0000
16350SI     SI116350   7.513   3.144   0.408  0.0000  0.0000  0.0000
16351SI     SI116351   8.389   8.581   9.178  0.0000  0.0000  0.0000
16352SI     SI116352   5.659   3.293   8.914  0.0000  0.0000  0.0000
16353SI     SI116353   4.583   9.218   0.965  0.0000  0.0000  0.0000
16354SI     SI116354   9.540   4.828   8.652  0.0000  0.0000  0.0000
16355SI     SI116355   5.552   1.029   0.944  0.0000  0.0000  0.0000
16356SI     SI116356   7.098   3.295   8.888  0.0000  0.0000  0.0000
16357SI     SI116357   1.548   1.269   0.584  0.0000  0.0000  0.0000
16358SI     SI116358   4.956   4.512   0.694  0.0000  0.0000  0.0000
16359SI     SI116359   4.818   5.089   0.626  0.0000  0.0000  0.0000
16360SI     SI116360   8.383   8.871   8.528  0.0000  0.0000  0.0000
16361SI     SI116361   6.010   1.210   8.417  0.0000  0.0000  0.0000
16362SI     SI116362   4.024   2.052   0.633  0.0000  0.0000  0.0000
16363SI     SI116363   9.510   8.201   0.128  0.0000  0.0000  0.0000
16364SI     SI116364   7.225   3.031   8.803  0.0000  0.0000  0.0000
16365SI     SI116365   1.861   7.897   9.051  0.0000  0.0000  0.0000
16366SI     SI116366   3.218   2.615   9.440  0.0000  0.0000  0.0000
16367SI     SI116367   1.306   4.014   1.135  0.0000  0.0000  0.0000
16368SI     SI116368   3.190   3.711   1.307  0.0000  0.0000  0.0000
16369SI     SI116369   8.119   8.668   9.268  0.0000  0.0000  0.0000
16370SI     SI116370   8.110   4.267   1.153  0.0000  0.0000  0.0000
16371SI     SI116371   7.913   2.543   0.580  0.0000  0.0000  0.0000
16372SI     SI116372   9.104   8.753   9.453  0.0000  0.0000  0.0000
16373SI     SI116373   3.975   4.848   1.288  0.0000  0.0000  0.0000
16374SI     SI116374   5.372   2.855   8.715  0.0000  0.0000  0.0000
16375SI     SI116375   1.505   5.405   8.936  0.0000  0.0000  0.0000
16376SI     SI116376   2.613   9.423   0.673  0.0000  0.0000  0.0000
16377SI     SI116377   7.631   6.276   8.760  0.0000  0.0000  0.0000
16378SI     SI116378   9.009   0.069   0.763  0.0000  0.0000  0.0000
16379SI     SI116379   1.997   6.156   8.374  0.0000  0.0000  0.0000
16380SI     SI116380   6.260   2.105   9.410  0.0000  0.0000  0.0000
16381SI     SI116381   7.776   3.269   0.278  0.0000  0.0000  0.0000
16382SI     SI116382   5.734   2.774   0.887  0.0000  0.0000  0.0000
16383SI     SI116383   4.098   8.129   0.200  0.0000  0.0000  0.0000
16384SI     SI116384   6.034   3.493   9.523  0.0000  0.0000  0.0000
16385SI     SI116385   1.781   3.191   9.523  0.0000  0.0000  0.0000
16386SI     SI116386   7.559   9.367   1.215  0.0000  0.0000  0.0000
16387SI     SI116387   2.520   1.472   9.391  0.0000  0.0000  0.0000
16388SI     SI116388   2.287   6.762   0.879  0.0000  0.0000  0.0000
16389SI     SI116389   0.991   6.118   0.027  0.0000  0.0000  0.0000
16390SI     SI116390   9.490   5.088   8.776  0.0000  0.0000  0.0000
16391SI     SI116391   5.965   6.497   9.352  0.0000  0.0000  0.0000
16392SI     SI116392   7.626   8.385   0.243  0.0000  0.0000  0.0000
16393SI     SI116393   8.588   3.076   8.831  0.0000  0.0000  0.0000
16394SI     SI116394   7.259   0.935   1.225  0.0000  0.0000  0.0000
16395SI     SI116395   5.081   7.532   0.239  0.0000  0.0000  0.0000
16396SI     SI116396   2.531   4.410   1.178  0.0000  0.0000  0.0000
16397SI     SI116397   2.189   5.671   1.327  0.0000  0.0000  0.0000
16398SI     SI116398   9.288   6.490   8.612  0.0000  0.0000  0.0000
16399SI     SI116399   4.040   7.131   0.534  0.0000  0.0000  0.0000
16400SI     SI116400   3.628   7.837   9.071  0.0000  0.0000  0.0000
16401SI     SI116401   7.736   8.683   9.354  0.0000  0.0000  0.0000
16402SI     SI116402   9.109   8.210   0.781  0.0000  0.0000  0.0000
16403SI     SI116403   3.301   3.550   9.292  0.0000  0.0000  0.0000
16404SI     SI116404   6.695   2.395   1.211  0.0000  0.0000  0.0000
16405SI     SI116405   3.866   6.238   0.056  0.0000  0.0000  0.0000
16406SI     SI116406   9.598   1.604   9.461  0.0000  0.0000  0.0000
16407SI     SI116407   3.705   4.834   1.138  0.0000  0.0000  0.0000
16408SI     SI116408   2.149   0.668   8.858  0.0000  0.0000  0.0000
16409SI     SI116409   4.617   8.079   8.863  0.0000  0.0000  0.0000
16410SI     SI116410   3.484   5.065   8.616  0.0000  0.0000  0.0000
16411SI     SI116411   8.780   2.653   0.307  0.0000  0.0000  0.0000
16412SI     SI116412   5.303   5.029   0.423  0.0000  0.0000  0.0000
16413SI     SI116413   2.383   8.775   0.358  0.0000  0.0000  0.0000
16414SI     SI116414   0.082   6.844   9.382  0.0000  0.0000  0.0000
16415SI     SI116415   1.870   0.928   0.969  0.0000  0.0000  0.0000
16416SI     SI116416   5.636   6.718   0.546  0.0000  0.0000  0.0000
16417SI     SI116417   1.356   3.603   1.208  0.0000  0.0000  0.0000
16418SI     SI116418   7.887   4.569   8.939  0.0000  0.0000  0.0000
16419SI     SI116419   8.536   5.480   8.787  0.0000  0.0000  0.0000
16420SI     SI116420   4.367   7.563   1.242  0.0000  0.0000  0.0000
16421SI     SI116421   1.925   4.389   8.690  0.0000  0.0000  0.0000
16422SI     SI116422   3.108   1.957   9.516  0.0000  0.0000  0.0000
16423SI     SI116423   3.826   5.445   8.671  0.0000  0.0000  0.0000
16424SI     SI116424   9.555   1.860   0.739  0.0000  0.0000  0.0000
16425SI     SI116425   9.350   1.813   0.284  0.0000  0.0000  0.0000
16426SI     SI116426   6.400   7.636   0.038  0.0000  0.0000  0.0000
16427SI     SI116427   7.750   2.496   0.312  0.0000  0.0000  0.0000
16428SI     SI116428   6.387   3.538   0.452  0.0000  0.0000  0.0000
16429SI     SI116429   0.579   0.186   1.121  0.0000  0.0000  0.0000
16430SI     SI116430   7.071   4.498   0.930  0.0000  0.0000  0.0000
16431SI     SI116431   4.834   7.753   9.526  0.0000  0.0000  0.0000
16432SI     SI116432   8.010   9.522   0.596  0.0000  0.0000  0.0000
16433SI     SI116433   6.801   5.693   9.067  0.0000  0.0000  0.0000
16434SI     SI116434   1.446   1.575   9.457  0.0000  0.0000  0.0000
16435SI     SI116435   7.835   4.680   8.428  0.0000  0.0000  0.0000
16436SI     SI116436   8.615   7.028   0.068  0.0000  0.0000  0.0000
16437SI     SI116437   3.017   5.965   8.661  0.0000  0.0000  0.0000
16438SI     SI116438   3.875   7.159   8.546  0.0000  0.0000  0.0000
16439SI     SI116439   4.526   8.438   9.460  0.0000  0.0000  0.0000
16440SI     SI116440   0.908   3.934   0.473  0.0000  0.0000  0.0000
16441SI     SI116441   8.461   7.264   0.861  0.0000  0.0000  0.0000
16442SI     SI116442   1.805   0.310   0.009  0.0000  0.0000  0.0000
16443SI     SI116443   6.672   3.528   8.918  0.0000  0.0000  0.0000
16444SI     SI116444   5.514   1.290   9.009  0.0000  0.0000  0.0000
16445SI     SI116445   5.311   5.398   0.597  0.0000  0.0000  0.0000
16446SI     SI116446   5.017   6.822   0.791  0.0000  0.0000  0.0000
16447SI     SI116447   5.480   4.747   1.150  0.0000  0.0000  0.0000
16448SI     SI116448   5.232   7.792   0.180  0.0000  0.0000  0.0000
16449SI     SI116449   8.239   1.685   9.146  0.0000  0.0000  0.0000
16450SI     SI116450   2.955   1.234   0.660  0.0000  0.0000  0.0000
16451SI     SI116451   2.879   3.959   8.581  0.0000  0.0000  0.0000
16452SI     SI116452   5.957   0.663   0.991  0.0000  0.0000  0.0000
16453SI     SI116453   4.700   1.451   8.552  0.0000  0.0000  0.0000
16454SI     SI116454   8.688   4.956   1.280  0.0000  0.0000  0.0000
16455SI     SI116455   1.851   5.878   0.095  0.0000  0.0000  0.0000
16456SI     SI116456   3.900   5.149   9.322  0.0000  0.0000  0.0000
16457SI     SI116457   9.169   0.808   9.449  0.0000  0.0000  0.0000
16458SI     SI116458   1.300   7.534   0.331  0.0000  0.0000  0.0000
16459SI     SI116459   6.475   0.159   8.897  0.0000  0.0000  0.0000
16460SI     SI116460   7.243   0.511   8.863  0.0000  0.0000  0.0000
16461SI     SI116461   9.473   4.776   9.080  0.0000  0.0000  0.0000
16462SI     SI116462   1.685   6.373   0.194  0.0000  0.0000  0.0000
16463SI     SI116463   4.767   4.149   8.415  0.0000  0.0000  0.0000
16464SI     SI116464   7.029   7.862   8.506  0.0000  0.0000  0.0000
16465SI     SI116465   6.627   5.243   0.194  0.0000  0.0000  0.0000
16466SI     SI116466   8.369   6.006   9.073  0.0000  0.0000  0.0000
16467SI     SI116467   9.576   6.544   0.607  0.0000  0.0000  0.0000
16468SI     SI116468   6.161   3.636   8.560  0.0000  0.0000  0.0000
16469SI     SI116469   4.548   5.464   0.098  0.0000  0.0000  0.0000
16470SI     SI116470   8.166   8.335   0.878  0.0000  0.0000  0.0000
16471SI     SI116471   5.350   8.442   8.929  0.0000  0.0000  0.0000
16472SI     SI116472   3.591   8.258   9.354  0.0000  0.0000  0.0000
16473SI     SI116473   5.247   7.525   0.964  0.0000  0.0000  0.0000
16474SI     SI116474   2.699   7.858   0.976  0.0000  0.0000  0.0000
16475SI     SI116475   1.498   1.986   9.429  0.0000  0.0000  0.0000
16476SI     SI116476   2.197   8.960   9.461  0.0000  0.0000  0.0000
16477SI     SI116477   9.281   0.440   0.588  0.0000  0.0000  0.0000
16478SI     SI116478   2.526   9.463   9.596  0.0000  0.0000  0.0000
16479SI     SI116479   4.470   1.353   1.069  0.0000  0.0000  0.0000
16480SI     SI116480   2.643   1.713   9.535  0.0000  0.0000  0.0000
16481SI     SI116481   0.881   7.812   1.182  0.0000  0.0000  0.0000
16482SI     SI116482   7.500   8.696   8.458  0.0000  0.0000  0.0000
16483SI     SI116483   0.454   7.069   8.564  0.0000  0.0000  0.0000
16484SI     SI116484   7.760   9.342   0.977  0.0000  0.0000  0.0000
16485SI     SI116485   3.421   7.725   0.788  0.0000  0.0000  0.0000
16486SI     SI116486   6.542   1.380   0.837  0.0000  0.0000  0.0000
16487SI     SI116487   8.162   1.397   9.094  0.0000  0.0000  0.0000
16488SI     SI116488   7.531   6.274   9.256  0.0000  0.0000  0.0000
16489SI     SI116489   0.746   2.702   8.872  0.0000  0.0000  0.0000
16490SI     SI116490   3.850   8.299   9.176  0.0000  0.0000  0.0000
16491SI     SI116491   2.319   8.206   0.453  0.0000  0.0000  0.0000
16492SI     SI116492   7.751   7.329   9.237  0.0000  0.0000  0.0000
16493SI     SI116493   0.651   5.766   8.668  0.0000  0.0000  0.0000
16494SI     SI116494   0.991   8.441   0.067  0.0000  0.0000  0.0000
16495SI     SI116495   8.193   8.203   8.608  0.0000  0.0000  0.0000
16496SI     SI116496   6.804   3.241   0.506  0.0000  0.0000  0.0000
16497SI     SI116497   5.689   5.795   0.472  0.0000  0.0000  0.0000
16498SI     SI116498   1.485   1.483   0.136  0.0000  0.0000  0.0000
16499SI     SI116499   3.356   5.238   8.830  0.0000  0.0000  0.0000
16500SI     SI116500   8.770   2.194   0.672  0.0000  0.0000  0.0000
16501SI     SI116501   0.984   5.289   0.536  0.0000  0.0000  0.0000
16502SI     SI116502   0.680   7.031   8.765  0.0000  0.0000  0.0000
16503SI     SI116503   7.043   1.450   8.651  0.0000  0.0000  0.0000
16504SI     SI116504   0.602   5.931   9.058  0.0000  0.0000  0.0000
16505SI     SI116505   4.909   9.011   8.411  0.0000  0.0000  0.0000
16506SI     SI116506   6.580   3.452   0.062  0.0000  0.0000  0.0000
16507SI     SI116507   8.858   7.808   0.328  0.0000  0.0000  0.0000
16508SI     SI116508   1.374   6.869   0.907  0.0000  0.0000  0.0000
16509SI     SI116509   1.906   8.849   9.481  0.0000  0.0000  0.0000
16510SI     SI116510   4.016   2.683   9.219  0.0000  0.0000  0.0000
16511SI     SI116511   6.211   3.758   8.845  0.0000  0.0000  0.0000
16512SI     SI116512   6.977   5.080   9.324  0.0000  0.0000  0.0000
16513SI     SI116513   4.563   7.896   9.565  0.0000  0.0000  0.0000
16514SI     SI116514   8.071   8.954   8.971  0.0000  0.0000  0.0000
16515SI     SI116515   2.437   1.872   0.323  0.0000  0.0000  0.0000
16516SI     SI116516   2.126   0.200   8.823  0.0000  0.0000  0.0000
16517SI     SI116517   5.343   4.797   0.232  0.0000  0.0000  0.0000
16518SI     SI116518   6.606   1.888   8.560  0.0000  0.0000  0.0000
16519SI     SI116519   0.901   6.828   0.079  0.0000  0.0000  0.0000
16520SI     SI116520   3.909   4.091   9.142  0.0000  0.0000  0.0000
16521SI     SI116521   8.534   6.829   0.583  0.0000  0.0000  0.0000
16522SI     SI116522   0.955   2.763   0.249  0.0000  0.0000  0.0000
16523SI     SI116523   9.142   5.783   0.992  0.0000  0.0000  0.0000
16524SI     SI116524   6.319   1.681   1.285  0.0000  0.0000  0.0000
16525SI     SI116525   4.466   3.005   8.849  0.0000  0.0000  0.0000
16526SI     SI116526   3.334   7.728   0.155  0.0000  0.0000  0.0000
16527SI     SI116527   2.899   2.644   8.841  0.0000  0.0000  0.0000
16528SI     SI116528   7.806   8.565   0.869  0.0000  0.0000  0.0000
16529SI     SI116529   2.428   3.700   1.177  0.0000  0.0000  0.0000
16530SI     SI116530   5.342   4.821   0.873  0.0000  0.0000  0.0000
16531SI     SI116531   7.428   2.011   0.738  0.0000  0.0000  0.0000
16532SI     SI116532   7.481   8.082   9.042  0.0000  0.0000  0.0000
16533SI     SI116533   8.220   1.766   0.609  0.0000  0.0000  0.0000
16534SI     SI116534   0.035   9.060   0.682  0.0000  0.0000  0.0000
16535SI     SI116535   5.814   0.349   9.277  0.0000  0.0000  0.0000
16536SI     SI116536   2.317   7.492   0.831  0.0000  0.0000  0.0000
16537SI     SI116537   1.616   9.387   9.172  0.0000  0.0000  0.0000
16538SI     SI116538   7.131   8.825   8.719  0.0000  0.0000  0.0000
16539SI     SI116539   0.111   2.777   0.601  0.0000  0.0000  0.0000
16540SI     SI116540   6.141   5.293   8.759  0.0000  0.0000  0.0000
16541SI     SI116541   4.921   0.220   0.681  0.0000  0.0000  0.0000
16542SI     SI116542   2.124   0.998   0.809  0.0000  0.0000  0.0000
16543SI     SI116543   4.187   4.420   9.383  0.0000  0.0000  0.0000
16544SI     SI116544   7.549   8.140   0.697  0.0000  0.0000  0.0000
16545SI     SI116545   2.116   7.115   8.347  0.0000  0.0000  0.0000
16546SI     SI116546   9.087   5.586   0.060  0.0000  0.0000  0.0000
16547SI     SI116547   3.971   7.526   8.837  0.0000  0.0000  0.0000
16548SI     SI116548   0.576   2.372   0.274  0.0000  0.0000  0.0000
16549SI     SI116549   6.379   2.960   0.096  0.0000  0.0000  0.0000
16550SI     SI116550   1.653   5.067   9.320  0.0000  0.0000  0.0000
16551SI     SI116551   9.047   0.897   0.242  0.0000  0.0000  0.0000
16552SI     SI116552   8.295   2.773   8.834  0.0000  0.0000  0.0000
16553SI     SI116553   9.149   5.366   0.757  0.0000  0.0000  0.0000
16554SI     SI116554   9.508   8.501   0.019  0.0000  0.0000  0.0000
16555SI     SI116555   0.588   3.880   0.921  0.0000  0.0000  0.0000
16556SI     SI116556   8.168   6.672   9.129  0.0000  0.0000  0.0000
16557SI     SI116557   2.566   8.286   1.028  0.0000  0.0000  0.0000
16558SI     SI116558   0.723   1.855   9.047  0.0000  0.0000  0.0000
16559SI     SI116559   0.302   7.576   9.605  0.0000  0.0000  0.0000
16560SI     SI116560   5.709   3.088   8.457  0.0000  0.0000  0.0000
16561SI     SI116561   5.006   3.086   8.488  0.0000  0.0000  0.0000
16562SI     SI116562   6.550   2.028   9.366  0.0000  0.0000  0.0000
16563SI     SI116563   4.370   1.516   8.985  0.0000  0.0000  0.0000
16564SI     SI116564   8.709   5.620   1.193  0.0000  0.0000  0.0000
16565SI     SI116565   2.993   7.743   0.965  0.0000  0.0000  0.0000
16566SI     SI116566   2.385   4.132   1.144  0.0000  0.0000  0.0000
16567SI     SI116567   4.522   7.761   0.665  0.0000  0.0000  0.0000
16568SI     SI116568   1.115   2.392   1.275  0.0000  0.0000  0.0000
16569SI     SI116569   6.589   4.092   8.579  0.0000  0.0000  0.0000
16570SI     SI116570   8.148   2.624   9.546  0.0000  0.0000  0.0000
16571SI     SI116571   7.707   8.843   0.005  0.0000  0.0000  0.0000
16572SI     SI116572   2.696   2.191   0.477  0.0000  0.0000  0.0000
16573SI     SI116573   2.848   4.326   9.379  0.0000  0.0000  0.0000
16574SI     SI116574   1.477   6.906   9.525  0.0000  0.0000  0.0000
16575SI     SI116575   8.941   4.761   0.163  0.0000  0.0000  0.0000
16576SI     SI116576   1.154   1.872   9.044  0.0000  0.0000  0.0000
16577SI     SI116577   3.330   0.057   0.909  0.0000  0.0000  0.0000
16578SI     SI116578   5.522   8.913   1.321  0.0000  0.0000  0.0000
16579SI     SI116579   0.850   2.948   0.479  0.0000  0.0000  0.0000
16580SI     SI116580   4.615   8.091   1.122  0.0000  0.0000  0.0000
16581SI     SI116581   1.181   7.812   9.278  0.0000  0.0000  0.0000
16582SI     SI116582   4.114   0.165   9.456  0.0000  0.0000  0.0000
16583SI     SI116583   2.040   3.189   0.093  0.0000  0.0000  0.0000
16584SI     SI116584   0.350   9.331   1.031  0.0000  0.0000  0.0000
16585SI     SI116585   3.261   6.755   0.253  0.0000  0.0000  0.0000
16586SI     SI116586   7.919   5.400   1.177  0.0000  0.0000  0.0000
16587SI     SI116587   8.878   0.661   8.615  0.0000  0.0000  0.0000
16588SI     SI116588   0.184   1.864   9.428  0.0000  0.0000  0.0000
16589SI     SI116589   5.243   3.748   9.278  0.0000  0.0000  0.0000
16590SI     SI116590   2.926   6.058   1.008  0.0000  0.0000  0.0000
16591SI     SI116591   3.706   5.755   9.368  0.0000  0.0000  0.0000
16592SI     SI116592   6.005   0.220   9.079  0.0000  0.0000  0.0000
16593SI     SI116593   4.636   9.344   1.240  0.0000  0.0000  0.0000
16594SI     SI116594   3.380   1.656   8.690  0.0000  0.0000  0.0000
16595SI     SI116595   8.949   3.530   0.564  0.0000  0.0000  0.0000
16596SI     SI116596   2.663   0.971   0.606  0.0000  0.0000  0.0000
16597SI     SI116597   2.989   8.646   9.559  0.0000  0.0000  0.0000
16598SI     SI116598   7.144   3.032   0.991  0.0000  0.0000  0.0000
16599SI     SI116599   3.517   7.435   8.773  0.0000  0.0000  0.0000
16600SI     SI116600   0.818   5.970   8.836  0.0000  0.0000  0.0000
16601SI     SI116601   5.883   3.005   0.725  0.0000  0.0000  0.0000
16602SI     SI116602   5.984   4.368   0.778  0.0000  0.0000  0.0000
16603SI     SI116603   9.594   2.386   8.809  0.0000  0.0000  0.0000
16604SI     SI116604   8.503   5.043   8.586  0.0000  0.0000  0.0000
16605SI     SI116605   6.126   1.895   8.717  0.0000  0.0000  0.0000
16606SI     SI116606   8.546   4.123   0.312  0.0000  0.0000  0.0000
16607SI     SI116607   6.705   9.218   9.567  0.0000  0.0000  0.0000
16608SI     SI116608   8.042   1.541   0.519  0.0000  0.0000  0.0000
16609SI     SI116609   4.863   8.486   8.816  0.0000  0.0000  0.0000
16610SI     SI116610   1.807   2.380   1.100  0.0000  0.0000  0.0000
16611SI     SI116611   0.082   5.056   0.200  0.0000  0.0000  0.0000
16612SI     SI116612   4.283   5.981   0.821  0.0000  0.0000  0.0000
16613SI     SI116613   7.410   6.622   1.336  0.0000  0.0000  0.0000
16614SI     SI116614   2.808   2.180   0.869  0.0000  0.0000  0.0000
16615SI     SI116615   3.494   0.320   8.656  0.0000  0.0000  0.0000
16616SI     SI116616   5.652   9.592   0.773  0.0000  0.0000  0.0000
16617SI     SI116617   9.531   6.079   0.674  0.0000  0.0000  0.0000
16618SI     SI116618   8.911   2.067   9.053  0.0000  0.0000  0.0000
16619SI     SI116619   4.270   1.229   8.911  0.0000  0.0000  0.0000
16620SI     SI116620   3.532   2.266   9.395  0.0000  0.0000  0.0000
16621SI     SI116621   0.525   2.387   8.603  0.0000  0.0000  0.0000
16622SI     SI116622   8.563   2.855   0.382  0.0000  0.0000  0.0000
16623SI     SI116623   2.239   3.105   8.729  0.0000  0.0000  0.0000
16624SI     SI116624   3.194   9.033   9.272  0.0000  0.0000  0.0000
16625SI     SI116625   8.874   8.128   8.782  0.0000  0.0000  0.0000
16626SI     SI116626   1.083   9.576   0.451  0.0000  0.0000  0.0000
16627TPSG   HA216627   6.310   2.648   8.025  0.0000  0.0000  0.0000
16627TPSG   CA216628   6.337   2.556   7.974  0.0000  0.0000  0.0000
16627TPSG   CA116629   6.362   2.437   8.044  0.0000  0.0000  0.0000
16627TPSG    Si16630   6.362   2.437   8.230  0.0000  0.0000  0.0000
16627TPSG   CA616631   6.403   2.323   7.972  0.0000  0.0000  0.0000
16627TPSG   HH616632   6.418   2.227   8.021  0.0000  0.0000  0.0000
16627TPSG   CA516633   6.426   2.330   7.833  0.0000  0.0000  0.0000
16627TPSG   HA516634   6.458   2.243   7.778  0.0000  0.0000  0.0000
16627TPSG   CA416635   6.403   2.451   7.765  0.0000  0.0000  0.0000
16627TPSG   HA416636   6.422   2.457   7.658  0.0000  0.0000  0.0000
16627TPSG   CA316637   6.356   2.563   7.835  0.0000  0.0000  0.0000
16627TPSG   HA316638   6.339   2.656   7.781  0.0000  0.0000  0.0000
16627TPSG    O116639   6.478   2.437   8.114  0.0000  0.0000  0.0000
16627TPSG    H616640   6.478   2.437   8.016  0.0000  0.0000  0.0000
16628TPSG   HA216641   1.970   4.878   7.986  0.0000  0.0000  0.0000
16628TPSG   CA216642   1.997   4.786   7.935  0.0000  0.0000  0.0000
16628TPSG   CA116643   2.022   4.667   8.005  0.0000  0.0000  0.0000
16628TPSG    Si16644   2.022   4.667   8.191  0.0000  0.0000  0.0000
16628TPSG   CA616645   2.063   4.553   7.933  0.0000  0.0000  0.0000
16628TPSG   HH616646   2.078   4.457   7.982  0.0000  0.0000  0.0000
16628TPSG   CA516647   2.086   4.560   7.794  0.0000  0.0000  0.0000
16628TPSG   HA516648   2.118   4.473   7.739  0.0000  0.0000  0.0000
16628TPSG   CA416649   2.063   4.681   7.726  0.0000  0.0000  0.0000
16628TPSG   HA416650   2.082   4.687   7.619  0.0000  0.0000  0.0000
16628TPSG   CA316651   2.016   4.793   7.796  0.0000  0.0000  0.0000
16628TPSG   HA316652   1.999   4.886   7.742  0.0000  0.0000  0.0000
16628TPSG    O116653   2.138   4.667   8.075  0.0000  0.0000  0.0000
16628TPSG    H616654   2.138   4.667   7.977  0.0000  0.0000  0.0000
16629TPSG   HA216655   7.416   6.561   8.032  0.0000  0.0000  0.0000
16629TPSG   CA216656   7.443   6.469   7.981  0.0000  0.0000  0.0000
16629TPSG   CA116657   7.468   6.350   8.051  0.0000  0.0000  0.0000
16629TPSG    Si16658   7.468   6.350   8.237  0.0000  0.0000  0.0000
16629TPSG   CA616659   7.509   6.236   7.979  0.0000  0.0000  0.0000
16629TPSG   HH616660   7.524   6.140   8.028  0.0000  0.0000  0.0000
16629TPSG   CA516661   7.532   6.243   7.840  0.0000  0.0000  0.0000
16629TPSG   HA516662   7.564   6.156   7.785  0.0000  0.0000  0.0000
16629TPSG   CA416663   7.509   6.364   7.772  0.0000  0.0000  0.0000
16629TPSG   HA416664   7.528   6.370   7.665  0.0000  0.0000  0.0000
16629TPSG   CA316665   7.462   6.476   7.842  0.0000  0.0000  0.0000
16629TPSG   HA316666   7.445   6.569   7.788  0.0000  0.0000  0.0000
16629TPSG    O116667   7.584   6.350   8.121  0.0000  0.0000  0.0000
16629TPSG    H616668   7.584   6.350   8.023  0.0000  0.0000  0.0000
16630TPSG   HA216669   9.565   5.578   8.087  0.0000  0.0000  0.0000
16630TPSG   CA216670   9.526   5.491   8.036  0.0000  0.0000  0.0000
16630TPSG   CA116671   9.469   5.383   8.106  0.0000  0.0000  0.0000
16630TPSG    Si16672   9.469   5.383   8.292  0.0000  0.0000  0.0000
16630TPSG   CA616673   9.427   5.269   8.034  0.0000  0.0000  0.0000
16630TPSG   HH616674   9.377   5.186   8.083  0.0000  0.0000  0.0000
16630TPSG   CA516675   9.449   5.261   7.895  0.0000  0.0000  0.0000
16630TPSG   HA516676   9.418   5.172   7.840  0.0000  0.0000  0.0000
16630TPSG   CA416677   9.509   5.367   7.827  0.0000  0.0000  0.0000
16630TPSG   HA416678   9.528   5.360   7.720  0.0000  0.0000  0.0000
16630TPSG   CA316679   9.545   5.483   7.897  0.0000  0.0000  0.0000
16630TPSG   HA316680   9.592   5.566   7.843  0.0000  0.0000  0.0000
16630TPSG    O116681   9.558   5.308   8.176  0.0000  0.0000  0.0000
16630TPSG    H616682   9.558   5.308   8.078  0.0000  0.0000  0.0000
16631TPSG   HA216683   4.917   2.591   8.039  0.0000  0.0000  0.0000
16631TPSG   CA216684   4.831   2.549   7.988  0.0000  0.0000  0.0000
16631TPSG   CA116685   4.718   2.503   8.058  0.0000  0.0000  0.0000
16631TPSG    Si16686   4.718   2.503   8.244  0.0000  0.0000  0.0000
16631TPSG   CA616687   4.613   2.443   7.986  0.0000  0.0000  0.0000
16631TPSG   HH616688   4.521   2.411   8.035  0.0000  0.0000  0.0000
16631TPSG   CA516689   4.624   2.422   7.847  0.0000  0.0000  0.0000
16631TPSG   HA516690   4.543   2.375   7.792  0.0000  0.0000  0.0000
16631TPSG   CA416691   4.739   2.465   7.779  0.0000  0.0000  0.0000
16631TPSG   HA416692   4.748   2.447   7.672  0.0000  0.0000  0.0000
16631TPSG   CA316693   4.841   2.531   7.849  0.0000  0.0000  0.0000
16631TPSG   HA316694   4.929   2.564   7.795  0.0000  0.0000  0.0000
16631TPSG    O116695   4.738   2.389   8.128  0.0000  0.0000  0.0000
16631TPSG    H616696   4.738   2.389   8.030  0.0000  0.0000  0.0000
16632TPSG   HA216697   7.211   7.738   8.036  0.0000  0.0000  0.0000
16632TPSG   CA216698   7.238   7.646   7.985  0.0000  0.0000  0.0000
16632TPSG   CA116699   7.263   7.527   8.055  0.0000  0.0000  0.0000
16632TPSG    Si16700   7.263   7.527   8.241  0.0000  0.0000  0.0000
16632TPSG   CA616701   7.304   7.413   7.983  0.0000  0.0000  0.0000
16632TPSG   HH616702   7.319   7.317   8.032  0.0000  0.0000  0.0000
16632TPSG   CA516703   7.327   7.420   7.844  0.0000  0.0000  0.0000
16632TPSG   HA516704   7.359   7.333   7.789  0.0000  0.0000  0.0000
16632TPSG   CA416705   7.304   7.541   7.776  0.0000  0.0000  0.0000
16632TPSG   HA416706   7.323   7.547   7.669  0.0000  0.0000  0.0000
16632TPSG   CA316707   7.257   7.653   7.846  0.0000  0.0000  0.0000
16632TPSG   HA316708   7.240   7.746   7.792  0.0000  0.0000  0.0000
16632TPSG    O116709   7.379   7.527   8.125  0.0000  0.0000  0.0000
16632TPSG    H616710   7.379   7.527   8.027  0.0000  0.0000  0.0000
16633TPSG   HA216711   5.190   7.025   1.533  0.0000  0.0000  0.0000
16633TPSG   CA216712   5.184   7.120   1.584  0.0000  0.0000  0.0000
16633TPSG   CA116713   5.167   7.241   1.514  0.0000  0.0000  0.0000
16633TPSG    Si16714   5.167   7.241   1.328  0.0000  0.0000  0.0000
16633TPSG   CA616715   5.167   7.362   1.586  0.0000  0.0000  0.0000
16633TPSG   HH616716   5.148   7.457   1.537  0.0000  0.0000  0.0000
16633TPSG   CA516717   5.190   7.363   1.725  0.0000  0.0000  0.0000
16633TPSG   HA516718   5.191   7.456   1.780  0.0000  0.0000  0.0000
16633TPSG   CA416719   5.210   7.242   1.793  0.0000  0.0000  0.0000
16633TPSG   HA416720   5.230   7.243   1.900  0.0000  0.0000  0.0000
16633TPSG   CA316721   5.204   7.121   1.723  0.0000  0.0000  0.0000
16633TPSG   HA316722   5.220   7.028   1.777  0.0000  0.0000  0.0000
16633TPSG    O116723   5.276   7.281   1.444  0.0000  0.0000  0.0000
16633TPSG    H616724   5.276   7.281   1.542  0.0000  0.0000  0.0000
16634TPSG   HA216725   5.048   2.132   7.948  0.0000  0.0000  0.0000
16634TPSG   CA216726   5.075   2.040   7.897  0.0000  0.0000  0.0000
16634TPSG   CA116727   5.100   1.921   7.967  0.0000  0.0000  0.0000
16634TPSG    Si16728   5.100   1.921   8.153  0.0000  0.0000  0.0000
16634TPSG   CA616729   5.141   1.807   7.895  0.0000  0.0000  0.0000
16634TPSG   HH616730   5.156   1.711   7.944  0.0000  0.0000  0.0000
16634TPSG   CA516731   5.164   1.814   7.756  0.0000  0.0000  0.0000
16634TPSG   HA516732   5.196   1.727   7.701  0.0000  0.0000  0.0000
16634TPSG   CA416733   5.141   1.935   7.688  0.0000  0.0000  0.0000
16634TPSG   HA416734   5.160   1.941   7.581  0.0000  0.0000  0.0000
16634TPSG   CA316735   5.094   2.047   7.758  0.0000  0.0000  0.0000
16634TPSG   HA316736   5.077   2.140   7.704  0.0000  0.0000  0.0000
16634TPSG    O116737   5.216   1.921   8.037  0.0000  0.0000  0.0000
16634TPSG    H616738   5.216   1.921   7.939  0.0000  0.0000  0.0000
16635TPSG   HA216739   6.817   0.761   1.615  0.0000  0.0000  0.0000
16635TPSG   CA216740   6.844   0.853   1.666  0.0000  0.0000  0.0000
16635TPSG   CA116741   6.869   0.972   1.596  0.0000  0.0000  0.0000
16635TPSG    Si16742   6.869   0.972   1.410  0.0000  0.0000  0.0000
16635TPSG   CA616743   6.910   1.086   1.668  0.0000  0.0000  0.0000
16635TPSG   HH616744   6.925   1.182   1.619  0.0000  0.0000  0.0000
16635TPSG   CA516745   6.933   1.079   1.807  0.0000  0.0000  0.0000
16635TPSG   HA516746   6.965   1.166   1.862  0.0000  0.0000  0.0000
16635TPSG   CA416747   6.910   0.958   1.875  0.0000  0.0000  0.0000
16635TPSG   HA416748   6.929   0.952   1.982  0.0000  0.0000  0.0000
16635TPSG   CA316749   6.863   0.846   1.805  0.0000  0.0000  0.0000
16635TPSG   HA316750   6.846   0.753   1.859  0.0000  0.0000  0.0000
16635TPSG    O116751   6.985   0.972   1.526  0.0000  0.0000  0.0000
16635TPSG    H616752   6.985   0.972   1.624  0.0000  0.0000  0.0000
16636TPSG   HA216753   9.021   0.701   8.153  0.0000  0.0000  0.0000
16636TPSG   CA216754   8.982   0.614   8.102  0.0000  0.0000  0.0000
16636TPSG   CA116755   8.925   0.506   8.172  0.0000  0.0000  0.0000
16636TPSG    Si16756   8.925   0.506   8.358  0.0000  0.0000  0.0000
16636TPSG   CA616757   8.883   0.392   8.100  0.0000  0.0000  0.0000
16636TPSG   HH616758   8.833   0.309   8.149  0.0000  0.0000  0.0000
16636TPSG   CA516759   8.905   0.384   7.961  0.0000  0.0000  0.0000
16636TPSG   HA516760   8.874   0.295   7.906  0.0000  0.0000  0.0000
16636TPSG   CA416761   8.965   0.490   7.893  0.0000  0.0000  0.0000
16636TPSG   HA416762   8.984   0.483   7.786  0.0000  0.0000  0.0000
16636TPSG   CA316763   9.001   0.606   7.963  0.0000  0.0000  0.0000
16636TPSG   HA316764   9.048   0.689   7.909  0.0000  0.0000  0.0000
16636TPSG    O116765   9.014   0.431   8.242  0.0000  0.0000  0.0000
16636TPSG    H616766   9.014   0.431   8.144  0.0000  0.0000  0.0000
16637TPSG   HA216767   6.176   8.952   1.511  0.0000  0.0000  0.0000
16637TPSG   CA216768   6.203   9.044   1.562  0.0000  0.0000  0.0000
16637TPSG   CA116769   6.228   9.163   1.492  0.0000  0.0000  0.0000
16637TPSG    Si16770   6.228   9.163   1.306  0.0000  0.0000  0.0000
16637TPSG   CA616771   6.269   9.277   1.564  0.0000  0.0000  0.0000
16637TPSG   HH616772   6.284   9.373   1.515  0.0000  0.0000  0.0000
16637TPSG   CA516773   6.292   9.270   1.703  0.0000  0.0000  0.0000
16637TPSG   HA516774   6.324   9.357   1.758  0.0000  0.0000  0.0000
16637TPSG   CA416775   6.269   9.149   1.771  0.0000  0.0000  0.0000
16637TPSG   HA416776   6.288   9.143   1.878  0.0000  0.0000  0.0000
16637TPSG   CA316777   6.222   9.037   1.701  0.0000  0.0000  0.0000
16637TPSG   HA316778   6.205   8.944   1.755  0.0000  0.0000  0.0000
16637TPSG    O116779   6.344   9.163   1.422  0.0000  0.0000  0.0000
16637TPSG    H616780   6.344   9.163   1.520  0.0000  0.0000  0.0000
16638TPSG   HA216781   0.812   3.302   8.012  0.0000  0.0000  0.0000
16638TPSG   CA216782   0.839   3.210   7.961  0.0000  0.0000  0.0000
16638TPSG   CA116783   0.864   3.091   8.031  0.0000  0.0000  0.0000
16638TPSG    Si16784   0.864   3.091   8.217  0.0000  0.0000  0.0000
16638TPSG   CA616785   0.905   2.977   7.959  0.0000  0.0000  0.0000
16638TPSG   HH616786   0.920   2.881   8.008  0.0000  0.0000  0.0000
16638TPSG   CA516787   0.928   2.984   7.820  0.0000  0.0000  0.0000
16638TPSG   HA516788   0.960   2.897   7.765  0.0000  0.0000  0.0000
16638TPSG   CA416789   0.905   3.105   7.752  0.0000  0.0000  0.0000
16638TPSG   HA416790   0.924   3.111   7.645  0.0000  0.0000  0.0000
16638TPSG   CA316791   0.858   3.217   7.822  0.0000  0.0000  0.0000
16638TPSG   HA316792   0.841   3.310   7.768  0.0000  0.0000  0.0000
16638TPSG    O116793   0.980   3.091   8.101  0.0000  0.0000  0.0000
16638TPSG    H616794   0.980   3.091   8.003  0.0000  0.0000  0.0000
16639TPSG   HA216795   1.372   4.517   1.585  0.0000  0.0000  0.0000
16639TPSG   CA216796   1.399   4.609   1.636  0.0000  0.0000  0.0000
16639TPSG   CA116797   1.424   4.728   1.566  0.0000  0.0000  0.0000
16639TPSG    Si16798   1.424   4.728   1.380  0.0000  0.0000  0.0000
16639TPSG   CA616799   1.465   4.842   1.638  0.0000  0.0000  0.0000
16639TPSG   HH616800   1.480   4.938   1.589  0.0000  0.0000  0.0000
16639TPSG   CA516801   1.488   4.835   1.777  0.0000  0.0000  0.0000
16639TPSG   HA516802   1.520   4.922   1.832  0.0000  0.0000  0.0000
16639TPSG   CA416803   1.465   4.714   1.845  0.0000  0.0000  0.0000
16639TPSG   HA416804   1.484   4.708   1.952  0.0000  0.0000  0.0000
16639TPSG   CA316805   1.418   4.602   1.775  0.0000  0.0000  0.0000
16639TPSG   HA316806   1.401   4.509   1.829  0.0000  0.0000  0.0000
16639TPSG    O116807   1.540   4.728   1.496  0.0000  0.0000  0.0000
16639TPSG    H616808   1.540   4.728   1.594  0.0000  0.0000  0.0000
16640TPSG   HA216809   5.961   0.340   1.477  0.0000  0.0000  0.0000
16640TPSG   CA216810   5.988   0.432   1.528  0.0000  0.0000  0.0000
16640TPSG   CA116811   6.013   0.551   1.458  0.0000  0.0000  0.0000
16640TPSG    Si16812   6.013   0.551   1.272  0.0000  0.0000  0.0000
16640TPSG   CA616813   6.054   0.665   1.530  0.0000  0.0000  0.0000
16640TPSG   HH616814   6.069   0.761   1.481  0.0000  0.0000  0.0000
16640TPSG   CA516815   6.077   0.658   1.669  0.0000  0.0000  0.0000
16640TPSG   HA516816   6.109   0.745   1.724  0.0000  0.0000  0.0000
16640TPSG   CA416817   6.054   0.537   1.737  0.0000  0.0000  0.0000
16640TPSG   HA416818   6.073   0.531   1.844  0.0000  0.0000  0.0000
16640TPSG   CA316819   6.007   0.425   1.667  0.0000  0.0000  0.0000
16640TPSG   HA316820   5.990   0.332   1.721  0.0000  0.0000  0.0000
16640TPSG    O116821   6.129   0.551   1.388  0.0000  0.0000  0.0000
16640TPSG    H616822   6.129   0.551   1.486  0.0000  0.0000  0.0000
16641TPSG   HA216823   4.349   4.493   8.042  0.0000  0.0000  0.0000
16641TPSG   CA216824   4.376   4.401   7.991  0.0000  0.0000  0.0000
16641TPSG   CA116825   4.401   4.282   8.061  0.0000  0.0000  0.0000
16641TPSG    Si16826   4.401   4.282   8.247  0.0000  0.0000  0.0000
16641TPSG   CA616827   4.442   4.168   7.989  0.0000  0.0000  0.0000
16641TPSG   HH616828   4.457   4.072   8.038  0.0000  0.0000  0.0000
16641TPSG   CA516829   4.465   4.175   7.850  0.0000  0.0000  0.0000
16641TPSG   HA516830   4.497   4.088   7.795  0.0000  0.0000  0.0000
16641TPSG   CA416831   4.442   4.296   7.782  0.0000  0.0000  0.0000
16641TPSG   HA416832   4.461   4.302   7.675  0.0000  0.0000  0.0000
16641TPSG   CA316833   4.395   4.408   7.852  0.0000  0.0000  0.0000
16641TPSG   HA316834   4.378   4.501   7.798  0.0000  0.0000  0.0000
16641TPSG    O116835   4.517   4.282   8.131  0.0000  0.0000  0.0000
16641TPSG    H616836   4.517   4.282   8.033  0.0000  0.0000  0.0000
16642TPSG   HA216837   1.774   9.271   8.026  0.0000  0.0000  0.0000
16642TPSG   CA216838   1.801   9.179   7.975  0.0000  0.0000  0.0000
16642TPSG   CA116839   1.826   9.060   8.045  0.0000  0.0000  0.0000
16642TPSG    Si16840   1.826   9.060   8.231  0.0000  0.0000  0.0000
16642TPSG   CA616841   1.867   8.946   7.973  0.0000  0.0000  0.0000
16642TPSG   HH616842   1.882   8.850   8.022  0.0000  0.0000  0.0000
16642TPSG   CA516843   1.890   8.953   7.834  0.0000  0.0000  0.0000
16642TPSG   HA516844   1.922   8.866   7.779  0.0000  0.0000  0.0000
16642TPSG   CA416845   1.867   9.074   7.766  0.0000  0.0000  0.0000
16642TPSG   HA416846   1.886   9.080   7.659  0.0000  0.0000  0.0000
16642TPSG   CA316847   1.820   9.186   7.836  0.0000  0.0000  0.0000
16642TPSG   HA316848   1.803   9.279   7.782  0.0000  0.0000  0.0000
16642TPSG    O116849   1.942   9.060   8.115  0.0000  0.0000  0.0000
16642TPSG    H616850   1.942   9.060   8.017  0.0000  0.0000  0.0000
16643TPSG   HA216851   0.902   6.950   7.976  0.0000  0.0000  0.0000
16643TPSG   CA216852   0.929   6.858   7.925  0.0000  0.0000  0.0000
16643TPSG   CA116853   0.954   6.739   7.995  0.0000  0.0000  0.0000
16643TPSG    Si16854   0.954   6.739   8.181  0.0000  0.0000  0.0000
16643TPSG   CA616855   0.995   6.625   7.923  0.0000  0.0000  0.0000
16643TPSG   HH616856   1.010   6.529   7.972  0.0000  0.0000  0.0000
16643TPSG   CA516857   1.018   6.632   7.784  0.0000  0.0000  0.0000
16643TPSG   HA516858   1.050   6.545   7.729  0.0000  0.0000  0.0000
16643TPSG   CA416859   0.995   6.753   7.716  0.0000  0.0000  0.0000
16643TPSG   HA416860   1.014   6.759   7.609  0.0000  0.0000  0.0000
16643TPSG   CA316861   0.948   6.865   7.786  0.0000  0.0000  0.0000
16643TPSG   HA316862   0.931   6.958   7.732  0.0000  0.0000  0.0000
16643TPSG    O116863   1.070   6.739   8.065  0.0000  0.0000  0.0000
16643TPSG    H616864   1.070   6.739   7.967  0.0000  0.0000  0.0000
16644TPSG   HA216865   4.232   6.656   1.629  0.0000  0.0000  0.0000
16644TPSG   CA216866   4.259   6.748   1.680  0.0000  0.0000  0.0000
16644TPSG   CA116867   4.284   6.867   1.610  0.0000  0.0000  0.0000
16644TPSG    Si16868   4.284   6.867   1.424  0.0000  0.0000  0.0000
16644TPSG   CA616869   4.325   6.981   1.682  0.0000  0.0000  0.0000
16644TPSG   HH616870   4.340   7.077   1.633  0.0000  0.0000  0.0000
16644TPSG   CA516871   4.348   6.974   1.821  0.0000  0.0000  0.0000
16644TPSG   HA516872   4.380   7.061   1.876  0.0000  0.0000  0.0000
16644TPSG   CA416873   4.325   6.853   1.889  0.0000  0.0000  0.0000
16644TPSG   HA416874   4.344   6.847   1.996  0.0000  0.0000  0.0000
16644TPSG   CA316875   4.278   6.741   1.819  0.0000  0.0000  0.0000
16644TPSG   HA316876   4.261   6.648   1.873  0.0000  0.0000  0.0000
16644TPSG    O116877   4.400   6.867   1.540  0.0000  0.0000  0.0000
16644TPSG    H616878   4.400   6.867   1.638  0.0000  0.0000  0.0000
16645TPSG   HA216879   5.981   7.180   7.996  0.0000  0.0000  0.0000
16645TPSG   CA216880   6.008   7.088   7.945  0.0000  0.0000  0.0000
16645TPSG   CA116881   6.033   6.969   8.015  0.0000  0.0000  0.0000
16645TPSG    Si16882   6.033   6.969   8.201  0.0000  0.0000  0.0000
16645TPSG   CA616883   6.074   6.855   7.943  0.0000  0.0000  0.0000
16645TPSG   HH616884   6.089   6.759   7.992  0.0000  0.0000  0.0000
16645TPSG   CA516885   6.097   6.862   7.804  0.0000  0.0000  0.0000
16645TPSG   HA516886   6.129   6.775   7.749  0.0000  0.0000  0.0000
16645TPSG   CA416887   6.074   6.983   7.736  0.0000  0.0000  0.0000
16645TPSG   HA416888   6.093   6.989   7.629  0.0000  0.0000  0.0000
16645TPSG   CA316889   6.027   7.095   7.806  0.0000  0.0000  0.0000
16645TPSG   HA316890   6.010   7.188   7.752  0.0000  0.0000  0.0000
16645TPSG    O116891   6.149   6.969   8.085  0.0000  0.0000  0.0000
16645TPSG    H616892   6.149   6.969   7.987  0.0000  0.0000  0.0000
16646TPSG   HA216893   0.261   8.190   8.113  0.0000  0.0000  0.0000
16646TPSG   CA216894   0.195   8.122   8.062  0.0000  0.0000  0.0000
16646TPSG   CA116895   0.104   8.040   8.132  0.0000  0.0000  0.0000
16646TPSG    Si16896   0.104   8.040   8.318  0.0000  0.0000  0.0000
16646TPSG   CA616897   0.026   7.947   8.060  0.0000  0.0000  0.0000
16646TPSG   HH616898  -0.049   7.886   8.109  0.0000  0.0000  0.0000
16646TPSG   CA516899   0.043   7.932   7.921  0.0000  0.0000  0.0000
16646TPSG   HA516900  -0.016   7.860   7.866  0.0000  0.0000  0.0000
16646TPSG   CA416901   0.136   8.011   7.853  0.0000  0.0000  0.0000
16646TPSG   HA416902   0.151   7.998   7.746  0.0000  0.0000  0.0000
16646TPSG   CA316903   0.210   8.108   7.923  0.0000  0.0000  0.0000
16646TPSG   HA316904   0.282   8.170   7.869  0.0000  0.0000  0.0000
16646TPSG    O116905   0.162   7.940   8.202  0.0000  0.0000  0.0000
16646TPSG    H616906   0.162   7.940   8.104  0.0000  0.0000  0.0000
16647TPSG   HA216907   2.053   9.137   1.570  0.0000  0.0000  0.0000
16647TPSG   CA216908   2.080   9.229   1.621  0.0000  0.0000  0.0000
16647TPSG   CA116909   2.105   9.348   1.551  0.0000  0.0000  0.0000
16647TPSG    Si16910   2.105   9.348   1.365  0.0000  0.0000  0.0000
16647TPSG   CA616911   2.146   9.462   1.623  0.0000  0.0000  0.0000
16647TPSG   HH616912   2.161   9.558   1.574  0.0000  0.0000  0.0000
16647TPSG   CA516913   2.169   9.455   1.762  0.0000  0.0000  0.0000
16647TPSG   HA516914   2.201   9.542   1.817  0.0000  0.0000  0.0000
16647TPSG   CA416915   2.146   9.334   1.830  0.0000  0.0000  0.0000
16647TPSG   HA416916   2.165   9.328   1.937  0.0000  0.0000  0.0000
16647TPSG   CA316917   2.099   9.222   1.760  0.0000  0.0000  0.0000
16647TPSG   HA316918   2.082   9.129   1.814  0.0000  0.0000  0.0000
16647TPSG    O116919   2.221   9.348   1.481  0.0000  0.0000  0.0000
16647TPSG    H616920   2.221   9.348   1.579  0.0000  0.0000  0.0000
16648TPSG   HA216921   9.454   1.879   1.592  0.0000  0.0000  0.0000
16648TPSG   CA216922   9.481   1.971   1.643  0.0000  0.0000  0.0000
16648TPSG   CA116923   9.506   2.090   1.573  0.0000  0.0000  0.0000
16648TPSG    Si16924   9.506   2.090   1.387  0.0000  0.0000  0.0000
16648TPSG   CA616925   9.547   2.204   1.645  0.0000  0.0000  0.0000
16648TPSG   HH616926   9.562   2.300   1.596  0.0000  0.0000  0.0000
16648TPSG   CA516927   9.570   2.197   1.784  0.0000  0.0000  0.0000
16648TPSG   HA516928   9.602   2.284   1.839  0.0000  0.0000  0.0000
16648TPSG   CA416929   9.547   2.076   1.852  0.0000  0.0000  0.0000
16648TPSG   HA416930   9.566   2.070   1.959  0.0000  0.0000  0.0000
16648TPSG   CA316931   9.500   1.964   1.782  0.0000  0.0000  0.0000
16648TPSG   HA316932   9.483   1.871   1.836  0.0000  0.0000  0.0000
16648TPSG    O116933   9.622   2.090   1.503  0.0000  0.0000  0.0000
16648TPSG    H616934   9.622   2.090   1.601  0.0000  0.0000  0.0000
16649TPSG   HA216935   5.249   4.377   1.550  0.0000  0.0000  0.0000
16649TPSG   CA216936   5.276   4.469   1.601  0.0000  0.0000  0.0000
16649TPSG   CA116937   5.301   4.588   1.531  0.0000  0.0000  0.0000
16649TPSG    Si16938   5.301   4.588   1.345  0.0000  0.0000  0.0000
16649TPSG   CA616939   5.342   4.702   1.603  0.0000  0.0000  0.0000
16649TPSG   HH616940   5.357   4.798   1.554  0.0000  0.0000  0.0000
16649TPSG   CA516941   5.365   4.695   1.742  0.0000  0.0000  0.0000
16649TPSG   HA516942   5.397   4.782   1.797  0.0000  0.0000  0.0000
16649TPSG   CA416943   5.342   4.574   1.810  0.0000  0.0000  0.0000
16649TPSG   HA416944   5.361   4.568   1.917  0.0000  0.0000  0.0000
16649TPSG   CA316945   5.295   4.462   1.740  0.0000  0.0000  0.0000
16649TPSG   HA316946   5.278   4.369   1.794  0.0000  0.0000  0.0000
16649TPSG    O116947   5.417   4.588   1.461  0.0000  0.0000  0.0000
16649TPSG    H616948   5.417   4.588   1.559  0.0000  0.0000  0.0000
16650TPSG   HA216949   2.074   7.718   1.613  0.0000  0.0000  0.0000
16650TPSG   CA216950   2.101   7.810   1.664  0.0000  0.0000  0.0000
16650TPSG   CA116951   2.126   7.929   1.594  0.0000  0.0000  0.0000
16650TPSG    Si16952   2.126   7.929   1.408  0.0000  0.0000  0.0000
16650TPSG   CA616953   2.167   8.043   1.666  0.0000  0.0000  0.0000
16650TPSG   HH616954   2.182   8.139   1.617  0.0000  0.0000  0.0000
16650TPSG   CA516955   2.190   8.036   1.805  0.0000  0.0000  0.0000
16650TPSG   HA516956   2.222   8.123   1.860  0.0000  0.0000  0.0000
16650TPSG   CA416957   2.167   7.915   1.873  0.0000  0.0000  0.0000
16650TPSG   HA416958   2.186   7.909   1.980  0.0000  0.0000  0.0000
16650TPSG   CA316959   2.120   7.803   1.803  0.0000  0.0000  0.0000
16650TPSG   HA316960   2.103   7.710   1.857  0.0000  0.0000  0.0000
16650TPSG    O116961   2.242   7.929   1.524  0.0000  0.0000  0.0000
16650TPSG    H616962   2.242   7.929   1.622  0.0000  0.0000  0.0000
16651TPSG   HA216963   0.212   4.225   1.599  0.0000  0.0000  0.0000
16651TPSG   CA216964   0.239   4.317   1.650  0.0000  0.0000  0.0000
16651TPSG   CA116965   0.264   4.436   1.580  0.0000  0.0000  0.0000
16651TPSG    Si16966   0.264   4.436   1.394  0.0000  0.0000  0.0000
16651TPSG   CA616967   0.305   4.550   1.652  0.0000  0.0000  0.0000
16651TPSG   HH616968   0.320   4.646   1.603  0.0000  0.0000  0.0000
16651TPSG   CA516969   0.328   4.543   1.791  0.0000  0.0000  0.0000
16651TPSG   HA516970   0.360   4.630   1.846  0.0000  0.0000  0.0000
16651TPSG   CA416971   0.305   4.422   1.859  0.0000  0.0000  0.0000
16651TPSG   HA416972   0.324   4.416   1.966  0.0000  0.0000  0.0000
16651TPSG   CA316973   0.258   4.310   1.789  0.0000  0.0000  0.0000
16651TPSG   HA316974   0.241   4.217   1.843  0.0000  0.0000  0.0000
16651TPSG    O116975   0.380   4.436   1.510  0.0000  0.0000  0.0000
16651TPSG    H616976   0.380   4.436   1.608  0.0000  0.0000  0.0000
16652TPSG   HA216977   1.330   6.960   8.035  0.0000  0.0000  0.0000
16652TPSG   CA216978   1.357   6.868   7.984  0.0000  0.0000  0.0000
16652TPSG   CA116979   1.382   6.749   8.054  0.0000  0.0000  0.0000
16652TPSG    Si16980   1.382   6.749   8.240  0.0000  0.0000  0.0000
16652TPSG   CA616981   1.423   6.635   7.982  0.0000  0.0000  0.0000
16652TPSG   HH616982   1.438   6.539   8.031  0.0000  0.0000  0.0000
16652TPSG   CA516983   1.446   6.642   7.843  0.0000  0.0000  0.0000
16652TPSG   HA516984   1.478   6.555   7.788  0.0000  0.0000  0.0000
16652TPSG   CA416985   1.423   6.763   7.775  0.0000  0.0000  0.0000
16652TPSG   HA416986   1.442   6.769   7.668  0.0000  0.0000  0.0000
16652TPSG   CA316987   1.376   6.875   7.845  0.0000  0.0000  0.0000
16652TPSG   HA316988   1.359   6.968   7.791  0.0000  0.0000  0.0000
16652TPSG    O116989   1.498   6.749   8.124  0.0000  0.0000  0.0000
16652TPSG    H616990   1.498   6.749   8.026  0.0000  0.0000  0.0000
16653TPSG   HA216991   6.826   6.697   8.069  0.0000  0.0000  0.0000
16653TPSG   CA216992   6.853   6.605   8.018  0.0000  0.0000  0.0000
16653TPSG   CA116993   6.878   6.486   8.088  0.0000  0.0000  0.0000
16653TPSG    Si16994   6.878   6.486   8.274  0.0000  0.0000  0.0000
16653TPSG   CA616995   6.919   6.372   8.016  0.0000  0.0000  0.0000
16653TPSG   HH616996   6.934   6.276   8.065  0.0000  0.0000  0.0000
16653TPSG   CA516997   6.942   6.379   7.877  0.0000  0.0000  0.0000
16653TPSG   HA516998   6.974   6.292   7.822  0.0000  0.0000  0.0000
16653TPSG   CA416999   6.919   6.500   7.809  0.0000  0.0000  0.0000
16653TPSG   HA417000   6.938   6.506   7.702  0.0000  0.0000  0.0000
16653TPSG   CA317001   6.872   6.612   7.879  0.0000  0.0000  0.0000
16653TPSG   HA317002   6.855   6.705   7.825  0.0000  0.0000  0.0000
16653TPSG    O117003   6.994   6.486   8.158  0.0000  0.0000  0.0000
16653TPSG    H617004   6.994   6.486   8.060  0.0000  0.0000  0.0000
16654TPSG   HA217005   0.688   5.739   1.589  0.0000  0.0000  0.0000
16654TPSG   CA217006   0.715   5.831   1.640  0.0000  0.0000  0.0000
16654TPSG   CA117007   0.740   5.950   1.570  0.0000  0.0000  0.0000
16654TPSG    Si17008   0.740   5.950   1.384  0.0000  0.0000  0.0000
16654TPSG   CA617009   0.781   6.064   1.642  0.0000  0.0000  0.0000
16654TPSG   HH617010   0.796   6.160   1.593  0.0000  0.0000  0.0000
16654TPSG   CA517011   0.804   6.057   1.781  0.0000  0.0000  0.0000
16654TPSG   HA517012   0.836   6.144   1.836  0.0000  0.0000  0.0000
16654TPSG   CA417013   0.781   5.936   1.849  0.0000  0.0000  0.0000
16654TPSG   HA417014   0.800   5.930   1.956  0.0000  0.0000  0.0000
16654TPSG   CA317015   0.734   5.824   1.779  0.0000  0.0000  0.0000
16654TPSG   HA317016   0.717   5.731   1.833  0.0000  0.0000  0.0000
16654TPSG    O117017   0.856   5.950   1.500  0.0000  0.0000  0.0000
16654TPSG    H617018   0.856   5.950   1.598  0.0000  0.0000  0.0000
16655TPSG   HA217019   2.245   3.716   1.555  0.0000  0.0000  0.0000
16655TPSG   CA217020   2.272   3.808   1.606  0.0000  0.0000  0.0000
16655TPSG   CA117021   2.297   3.927   1.536  0.0000  0.0000  0.0000
16655TPSG    Si17022   2.297   3.927   1.350  0.0000  0.0000  0.0000
16655TPSG   CA617023   2.338   4.041   1.608  0.0000  0.0000  0.0000
16655TPSG   HH617024   2.353   4.137   1.559  0.0000  0.0000  0.0000
16655TPSG   CA517025   2.361   4.034   1.747  0.0000  0.0000  0.0000
16655TPSG   HA517026   2.393   4.121   1.802  0.0000  0.0000  0.0000
16655TPSG   CA417027   2.338   3.913   1.815  0.0000  0.0000  0.0000
16655TPSG   HA417028   2.357   3.907   1.922  0.0000  0.0000  0.0000
16655TPSG   CA317029   2.291   3.801   1.745  0.0000  0.0000  0.0000
16655TPSG   HA317030   2.274   3.708   1.799  0.0000  0.0000  0.0000
16655TPSG    O117031   2.413   3.927   1.466  0.0000  0.0000  0.0000
16655TPSG    H617032   2.413   3.927   1.564  0.0000  0.0000  0.0000
16656TPSG   HA217033   5.300   6.400   8.096  0.0000  0.0000  0.0000
16656TPSG   CA217034   5.327   6.308   8.045  0.0000  0.0000  0.0000
16656TPSG   CA117035   5.352   6.189   8.115  0.0000  0.0000  0.0000
16656TPSG    Si17036   5.352   6.189   8.301  0.0000  0.0000  0.0000
16656TPSG   CA617037   5.393   6.075   8.043  0.0000  0.0000  0.0000
16656TPSG   HH617038   5.408   5.979   8.092  0.0000  0.0000  0.0000
16656TPSG   CA517039   5.416   6.082   7.904  0.0000  0.0000  0.0000
16656TPSG   HA517040   5.448   5.995   7.849  0.0000  0.0000  0.0000
16656TPSG   CA417041   5.393   6.203   7.836  0.0000  0.0000  0.0000
16656TPSG   HA417042   5.412   6.209   7.729  0.0000  0.0000  0.0000
16656TPSG   CA317043   5.346   6.315   7.906  0.0000  0.0000  0.0000
16656TPSG   HA317044   5.329   6.408   7.852  0.0000  0.0000  0.0000
16656TPSG    O117045   5.468   6.189   8.185  0.0000  0.0000  0.0000
16656TPSG    H617046   5.468   6.189   8.087  0.0000  0.0000  0.0000
16657TPSG   HA217047   0.291   2.175   1.567  0.0000  0.0000  0.0000
16657TPSG   CA217048   0.318   2.267   1.618  0.0000  0.0000  0.0000
16657TPSG   CA117049   0.343   2.386   1.548  0.0000  0.0000  0.0000
16657TPSG    Si17050   0.343   2.386   1.362  0.0000  0.0000  0.0000
16657TPSG   CA617051   0.384   2.500   1.620  0.0000  0.0000  0.0000
16657TPSG   HH617052   0.399   2.596   1.571  0.0000  0.0000  0.0000
16657TPSG   CA517053   0.407   2.493   1.759  0.0000  0.0000  0.0000
16657TPSG   HA517054   0.439   2.580   1.814  0.0000  0.0000  0.0000
16657TPSG   CA417055   0.384   2.372   1.827  0.0000  0.0000  0.0000
16657TPSG   HA417056   0.403   2.366   1.934  0.0000  0.0000  0.0000
16657TPSG   CA317057   0.337   2.260   1.757  0.0000  0.0000  0.0000
16657TPSG   HA317058   0.320   2.167   1.811  0.0000  0.0000  0.0000
16657TPSG    O117059   0.459   2.386   1.478  0.0000  0.0000  0.0000
16657TPSG    H617060   0.459   2.386   1.576  0.0000  0.0000  0.0000
16658TPSG   HA217061   8.162   7.534   1.491  0.0000  0.0000  0.0000
16658TPSG   CA217062   8.189   7.626   1.542  0.0000  0.0000  0.0000
16658TPSG   CA117063   8.214   7.745   1.472  0.0000  0.0000  0.0000
16658TPSG    Si17064   8.214   7.745   1.286  0.0000  0.0000  0.0000
16658TPSG   CA617065   8.255   7.859   1.544  0.0000  0.0000  0.0000
16658TPSG   HH617066   8.270   7.955   1.495  0.0000  0.0000  0.0000
16658TPSG   CA517067   8.278   7.852   1.683  0.0000  0.0000  0.0000
16658TPSG   HA517068   8.310   7.939   1.738  0.0000  0.0000  0.0000
16658TPSG   CA417069   8.255   7.731   1.751  0.0000  0.0000  0.0000
16658TPSG   HA417070   8.274   7.725   1.858  0.0000  0.0000  0.0000
16658TPSG   CA317071   8.208   7.619   1.681  0.0000  0.0000  0.0000
16658TPSG   HA317072   8.191   7.526   1.735  0.0000  0.0000  0.0000
16658TPSG    O117073   8.330   7.745   1.402  0.0000  0.0000  0.0000
16658TPSG    H617074   8.330   7.745   1.500  0.0000  0.0000  0.0000
16659TPSG   HA217075   8.927   2.142   1.507  0.0000  0.0000  0.0000
16659TPSG   CA217076   8.954   2.234   1.558  0.0000  0.0000  0.0000
16659TPSG   CA117077   8.979   2.353   1.488  0.0000  0.0000  0.0000
16659TPSG    Si17078   8.979   2.353   1.302  0.0000  0.0000  0.0000
16659TPSG   CA617079   9.020   2.467   1.560  0.0000  0.0000  0.0000
16659TPSG   HH617080   9.035   2.563   1.511  0.0000  0.0000  0.0000
16659TPSG   CA517081   9.043   2.460   1.699  0.0000  0.0000  0.0000
16659TPSG   HA517082   9.075   2.547   1.754  0.0000  0.0000  0.0000
16659TPSG   CA417083   9.020   2.339   1.767  0.0000  0.0000  0.0000
16659TPSG   HA417084   9.039   2.333   1.874  0.0000  0.0000  0.0000
16659TPSG   CA317085   8.973   2.227   1.697  0.0000  0.0000  0.0000
16659TPSG   HA317086   8.956   2.134   1.751  0.0000  0.0000  0.0000
16659TPSG    O117087   9.095   2.353   1.418  0.0000  0.0000  0.0000
16659TPSG    H617088   9.095   2.353   1.516  0.0000  0.0000  0.0000
16660TPSG   HA217089   5.774   1.966   8.064  0.0000  0.0000  0.0000
16660TPSG   CA217090   5.801   1.874   8.013  0.0000  0.0000  0.0000
16660TPSG   CA117091   5.826   1.755   8.083  0.0000  0.0000  0.0000
16660TPSG    Si17092   5.826   1.755   8.269  0.0000  0.0000  0.0000
16660TPSG   CA617093   5.867   1.641   8.011  0.0000  0.0000  0.0000
16660TPSG   HH617094   5.882   1.545   8.060  0.0000  0.0000  0.0000
16660TPSG   CA517095   5.890   1.648   7.872  0.0000  0.0000  0.0000
16660TPSG   HA517096   5.922   1.561   7.817  0.0000  0.0000  0.0000
16660TPSG   CA417097   5.867   1.769   7.804  0.0000  0.0000  0.0000
16660TPSG   HA417098   5.886   1.775   7.697  0.0000  0.0000  0.0000
16660TPSG   CA317099   5.820   1.881   7.874  0.0000  0.0000  0.0000
16660TPSG   HA317100   5.803   1.974   7.820  0.0000  0.0000  0.0000
16660TPSG    O117101   5.942   1.755   8.153  0.0000  0.0000  0.0000
16660TPSG    H617102   5.942   1.755   8.055  0.0000  0.0000  0.0000
16661TPSG   HA217103   3.855   6.549   1.558  0.0000  0.0000  0.0000
16661TPSG   CA217104   3.882   6.641   1.609  0.0000  0.0000  0.0000
16661TPSG   CA117105   3.907   6.760   1.539  0.0000  0.0000  0.0000
16661TPSG    Si17106   3.907   6.760   1.353  0.0000  0.0000  0.0000
16661TPSG   CA617107   3.948   6.874   1.611  0.0000  0.0000  0.0000
16661TPSG   HH617108   3.963   6.970   1.562  0.0000  0.0000  0.0000
16661TPSG   CA517109   3.971   6.867   1.750  0.0000  0.0000  0.0000
16661TPSG   HA517110   4.003   6.954   1.805  0.0000  0.0000  0.0000
16661TPSG   CA417111   3.948   6.746   1.818  0.0000  0.0000  0.0000
16661TPSG   HA417112   3.967   6.740   1.925  0.0000  0.0000  0.0000
16661TPSG   CA317113   3.901   6.634   1.748  0.0000  0.0000  0.0000
16661TPSG   HA317114   3.884   6.541   1.802  0.0000  0.0000  0.0000
16661TPSG    O117115   4.023   6.760   1.469  0.0000  0.0000  0.0000
16661TPSG    H617116   4.023   6.760   1.567  0.0000  0.0000  0.0000
16662TPSG   HA217117   8.239   0.805   8.036  0.0000  0.0000  0.0000
16662TPSG   CA217118   8.266   0.713   7.985  0.0000  0.0000  0.0000
16662TPSG   CA117119   8.291   0.594   8.055  0.0000  0.0000  0.0000
16662TPSG    Si17120   8.291   0.594   8.241  0.0000  0.0000  0.0000
16662TPSG   CA617121   8.332   0.480   7.983  0.0000  0.0000  0.0000
16662TPSG   HH617122   8.347   0.384   8.032  0.0000  0.0000  0.0000
16662TPSG   CA517123   8.355   0.487   7.844  0.0000  0.0000  0.0000
16662TPSG   HA517124   8.387   0.400   7.789  0.0000  0.0000  0.0000
16662TPSG   CA417125   8.332   0.608   7.776  0.0000  0.0000  0.0000
16662TPSG   HA417126   8.351   0.614   7.669  0.0000  0.0000  0.0000
16662TPSG   CA317127   8.285   0.720   7.846  0.0000  0.0000  0.0000
16662TPSG   HA317128   8.268   0.813   7.792  0.0000  0.0000  0.0000
16662TPSG    O117129   8.407   0.594   8.125  0.0000  0.0000  0.0000
16662TPSG    H617130   8.407   0.594   8.027  0.0000  0.0000  0.0000
16663TPSG   HA217131   3.585   3.672   8.009  0.0000  0.0000  0.0000
16663TPSG   CA217132   3.612   3.580   7.958  0.0000  0.0000  0.0000
16663TPSG   CA117133   3.637   3.461   8.028  0.0000  0.0000  0.0000
16663TPSG    Si17134   3.637   3.461   8.214  0.0000  0.0000  0.0000
16663TPSG   CA617135   3.678   3.347   7.956  0.0000  0.0000  0.0000
16663TPSG   HH617136   3.693   3.251   8.005  0.0000  0.0000  0.0000
16663TPSG   CA517137   3.701   3.354   7.817  0.0000  0.0000  0.0000
16663TPSG   HA517138   3.733   3.267   7.762  0.0000  0.0000  0.0000
16663TPSG   CA417139   3.678   3.475   7.749  0.0000  0.0000  0.0000
16663TPSG   HA417140   3.697   3.481   7.642  0.0000  0.0000  0.0000
16663TPSG   CA317141   3.631   3.587   7.819  0.0000  0.0000  0.0000
16663TPSG   HA317142   3.614   3.680   7.765  0.0000  0.0000  0.0000
16663TPSG    O117143   3.753   3.461   8.098  0.0000  0.0000  0.0000
16663TPSG    H617144   3.753   3.461   8.000  0.0000  0.0000  0.0000
16664TPSG   HA217145   5.592   1.709   8.046  0.0000  0.0000  0.0000
16664TPSG   CA217146   5.619   1.617   7.995  0.0000  0.0000  0.0000
16664TPSG   CA117147   5.644   1.498   8.065  0.0000  0.0000  0.0000
16664TPSG    Si17148   5.644   1.498   8.251  0.0000  0.0000  0.0000
16664TPSG   CA617149   5.685   1.384   7.993  0.0000  0.0000  0.0000
16664TPSG   HH617150   5.700   1.288   8.042  0.0000  0.0000  0.0000
16664TPSG   CA517151   5.708   1.391   7.854  0.0000  0.0000  0.0000
16664TPSG   HA517152   5.740   1.304   7.799  0.0000  0.0000  0.0000
16664TPSG   CA417153   5.685   1.512   7.786  0.0000  0.0000  0.0000
16664TPSG   HA417154   5.704   1.518   7.679  0.0000  0.0000  0.0000
16664TPSG   CA317155   5.638   1.624   7.856  0.0000  0.0000  0.0000
16664TPSG   HA317156   5.621   1.717   7.802  0.0000  0.0000  0.0000
16664TPSG    O117157   5.760   1.498   8.135  0.0000  0.0000  0.0000
16664TPSG    H617158   5.760   1.498   8.037  0.0000  0.0000  0.0000
16665TPSG   HA217159   1.546   8.976   8.056  0.0000  0.0000  0.0000
16665TPSG   CA217160   1.573   8.884   8.005  0.0000  0.0000  0.0000
16665TPSG   CA117161   1.598   8.765   8.075  0.0000  0.0000  0.0000
16665TPSG    Si17162   1.598   8.765   8.261  0.0000  0.0000  0.0000
16665TPSG   CA617163   1.639   8.651   8.003  0.0000  0.0000  0.0000
16665TPSG   HH617164   1.654   8.555   8.052  0.0000  0.0000  0.0000
16665TPSG   CA517165   1.662   8.658   7.864  0.0000  0.0000  0.0000
16665TPSG   HA517166   1.694   8.571   7.809  0.0000  0.0000  0.0000
16665TPSG   CA417167   1.639   8.779   7.796  0.0000  0.0000  0.0000
16665TPSG   HA417168   1.658   8.785   7.689  0.0000  0.0000  0.0000
16665TPSG   CA317169   1.592   8.891   7.866  0.0000  0.0000  0.0000
16665TPSG   HA317170   1.575   8.984   7.812  0.0000  0.0000  0.0000
16665TPSG    O117171   1.714   8.765   8.145  0.0000  0.0000  0.0000
16665TPSG    H617172   1.714   8.765   8.047  0.0000  0.0000  0.0000
16666TPSG   HA217173   0.038   3.968   7.956  0.0000  0.0000  0.0000
16666TPSG   CA217174   0.065   3.876   7.905  0.0000  0.0000  0.0000
16666TPSG   CA117175   0.090   3.757   7.975  0.0000  0.0000  0.0000
16666TPSG    Si17176   0.090   3.757   8.161  0.0000  0.0000  0.0000
16666TPSG   CA617177   0.131   3.643   7.903  0.0000  0.0000  0.0000
16666TPSG   HH617178   0.146   3.547   7.952  0.0000  0.0000  0.0000
16666TPSG   CA517179   0.154   3.650   7.764  0.0000  0.0000  0.0000
16666TPSG   HA517180   0.186   3.563   7.709  0.0000  0.0000  0.0000
16666TPSG   CA417181   0.131   3.771   7.696  0.0000  0.0000  0.0000
16666TPSG   HA417182   0.150   3.777   7.589  0.0000  0.0000  0.0000
16666TPSG   CA317183   0.084   3.883   7.766  0.0000  0.0000  0.0000
16666TPSG   HA317184   0.067   3.976   7.712  0.0000  0.0000  0.0000
16666TPSG    O117185   0.206   3.757   8.045  0.0000  0.0000  0.0000
16666TPSG    H617186   0.206   3.757   7.947  0.0000  0.0000  0.0000
16667TPSG   HA217187   7.179   1.587   7.946  0.0000  0.0000  0.0000
16667TPSG   CA217188   7.206   1.495   7.895  0.0000  0.0000  0.0000
16667TPSG   CA117189   7.231   1.376   7.965  0.0000  0.0000  0.0000
16667TPSG    Si17190   7.231   1.376   8.151  0.0000  0.0000  0.0000
16667TPSG   CA617191   7.272   1.262   7.893  0.0000  0.0000  0.0000
16667TPSG   HH617192   7.287   1.166   7.942  0.0000  0.0000  0.0000
16667TPSG   CA517193   7.295   1.269   7.754  0.0000  0.0000  0.0000
16667TPSG   HA517194   7.327   1.182   7.699  0.0000  0.0000  0.0000
16667TPSG   CA417195   7.272   1.390   7.686  0.0000  0.0000  0.0000
16667TPSG   HA417196   7.291   1.396   7.579  0.0000  0.0000  0.0000
16667TPSG   CA317197   7.225   1.502   7.756  0.0000  0.0000  0.0000
16667TPSG   HA317198   7.208   1.595   7.702  0.0000  0.0000  0.0000
16667TPSG    O117199   7.347   1.376   8.035  0.0000  0.0000  0.0000
16667TPSG    H617200   7.347   1.376   7.937  0.0000  0.0000  0.0000
16668TPSG   HA217201   5.637   3.183   1.571  0.0000  0.0000  0.0000
16668TPSG   CA217202   5.664   3.275   1.622  0.0000  0.0000  0.0000
16668TPSG   CA117203   5.689   3.394   1.552  0.0000  0.0000  0.0000
16668TPSG    Si17204   5.689   3.394   1.366  0.0000  0.0000  0.0000
16668TPSG   CA617205   5.730   3.508   1.624  0.0000  0.0000  0.0000
16668TPSG   HH617206   5.745   3.604   1.575  0.0000  0.0000  0.0000
16668TPSG   CA517207   5.753   3.501   1.763  0.0000  0.0000  0.0000
16668TPSG   HA517208   5.785   3.588   1.818  0.0000  0.0000  0.0000
16668TPSG   CA417209   5.730   3.380   1.831  0.0000  0.0000  0.0000
16668TPSG   HA417210   5.749   3.374   1.938  0.0000  0.0000  0.0000
16668TPSG   CA317211   5.683   3.268   1.761  0.0000  0.0000  0.0000
16668TPSG   HA317212   5.666   3.175   1.815  0.0000  0.0000  0.0000
16668TPSG    O117213   5.805   3.394   1.482  0.0000  0.0000  0.0000
16668TPSG    H617214   5.805   3.394   1.580  0.0000  0.0000  0.0000
16669TPSG   HA217215   8.586   0.304   8.049  0.0000  0.0000  0.0000
16669TPSG   CA217216   8.613   0.212   7.998  0.0000  0.0000  0.0000
16669TPSG   CA117217   8.638   0.093   8.068  0.0000  0.0000  0.0000
16669TPSG    Si17218   8.638   0.093   8.254  0.0000  0.0000  0.0000
16669TPSG   CA617219   8.679  -0.021   7.996  0.0000  0.0000  0.0000
16669TPSG   HH617220   8.694  -0.117   8.045  0.0000  0.0000  0.0000
16669TPSG   CA517221   8.702  -0.014   7.857  0.0000  0.0000  0.0000
16669TPSG   HA517222   8.734  -0.101   7.802  0.0000  0.0000  0.0000
16669TPSG   CA417223   8.679   0.107   7.789  0.0000  0.0000  0.0000
16669TPSG   HA417224   8.698   0.113   7.682  0.0000  0.0000  0.0000
16669TPSG   CA317225   8.632   0.219   7.859  0.0000  0.0000  0.0000
16669TPSG   HA317226   8.615   0.312   7.805  0.0000  0.0000  0.0000
16669TPSG    O117227   8.754   0.093   8.138  0.0000  0.0000  0.0000
16669TPSG    H617228   8.754   0.093   8.040  0.0000  0.0000  0.0000
16670TPSG   HA217229   3.230   2.375   1.540  0.0000  0.0000  0.0000
16670TPSG   CA217230   3.257   2.467   1.591  0.0000  0.0000  0.0000
16670TPSG   CA117231   3.282   2.586   1.521  0.0000  0.0000  0.0000
16670TPSG    Si17232   3.282   2.586   1.335  0.0000  0.0000  0.0000
16670TPSG   CA617233   3.323   2.700   1.593  0.0000  0.0000  0.0000
16670TPSG   HH617234   3.338   2.796   1.544  0.0000  0.0000  0.0000
16670TPSG   CA517235   3.346   2.693   1.732  0.0000  0.0000  0.0000
16670TPSG   HA517236   3.378   2.780   1.787  0.0000  0.0000  0.0000
16670TPSG   CA417237   3.323   2.572   1.800  0.0000  0.0000  0.0000
16670TPSG   HA417238   3.342   2.566   1.907  0.0000  0.0000  0.0000
16670TPSG   CA317239   3.276   2.460   1.730  0.0000  0.0000  0.0000
16670TPSG   HA317240   3.259   2.367   1.784  0.0000  0.0000  0.0000
16670TPSG    O117241   3.398   2.586   1.451  0.0000  0.0000  0.0000
16670TPSG    H617242   3.398   2.586   1.549  0.0000  0.0000  0.0000
16671TPSG   HA217243   6.262   6.746   7.990  0.0000  0.0000  0.0000
16671TPSG   CA217244   6.223   6.659   7.939  0.0000  0.0000  0.0000
16671TPSG   CA117245   6.166   6.551   8.009  0.0000  0.0000  0.0000
16671TPSG    Si17246   6.166   6.551   8.195  0.0000  0.0000  0.0000
16671TPSG   CA617247   6.124   6.437   7.937  0.0000  0.0000  0.0000
16671TPSG   HH617248   6.074   6.354   7.986  0.0000  0.0000  0.0000
16671TPSG   CA517249   6.146   6.429   7.798  0.0000  0.0000  0.0000
16671TPSG   HA517250   6.115   6.340   7.743  0.0000  0.0000  0.0000
16671TPSG   CA417251   6.206   6.535   7.730  0.0000  0.0000  0.0000
16671TPSG   HA417252   6.225   6.528   7.623  0.0000  0.0000  0.0000
16671TPSG   CA317253   6.242   6.651   7.800  0.0000  0.0000  0.0000
16671TPSG   HA317254   6.289   6.734   7.746  0.0000  0.0000  0.0000
16671TPSG    O117255   6.255   6.476   8.079  0.0000  0.0000  0.0000
16671TPSG    H617256   6.255   6.476   7.981  0.0000  0.0000  0.0000
16672TPSG   HA217257   5.525   8.831   7.955  0.0000  0.0000  0.0000
16672TPSG   CA217258   5.552   8.739   7.904  0.0000  0.0000  0.0000
16672TPSG   CA117259   5.577   8.620   7.974  0.0000  0.0000  0.0000
16672TPSG    Si17260   5.577   8.620   8.160  0.0000  0.0000  0.0000
16672TPSG   CA617261   5.618   8.506   7.902  0.0000  0.0000  0.0000
16672TPSG   HH617262   5.633   8.410   7.951  0.0000  0.0000  0.0000
16672TPSG   CA517263   5.641   8.513   7.763  0.0000  0.0000  0.0000
16672TPSG   HA517264   5.673   8.426   7.708  0.0000  0.0000  0.0000
16672TPSG   CA417265   5.618   8.634   7.695  0.0000  0.0000  0.0000
16672TPSG   HA417266   5.637   8.640   7.588  0.0000  0.0000  0.0000
16672TPSG   CA317267   5.571   8.746   7.765  0.0000  0.0000  0.0000
16672TPSG   HA317268   5.554   8.839   7.711  0.0000  0.0000  0.0000
16672TPSG    O117269   5.693   8.620   8.044  0.0000  0.0000  0.0000
16672TPSG    H617270   5.693   8.620   7.946  0.0000  0.0000  0.0000
16673TPSG   HA217271   1.850   4.684   1.600  0.0000  0.0000  0.0000
16673TPSG   CA217272   1.844   4.779   1.651  0.0000  0.0000  0.0000
16673TPSG   CA117273   1.827   4.900   1.581  0.0000  0.0000  0.0000
16673TPSG    Si17274   1.827   4.900   1.395  0.0000  0.0000  0.0000
16673TPSG   CA617275   1.827   5.021   1.653  0.0000  0.0000  0.0000
16673TPSG   HH617276   1.808   5.116   1.604  0.0000  0.0000  0.0000
16673TPSG   CA517277   1.850   5.022   1.792  0.0000  0.0000  0.0000
16673TPSG   HA517278   1.851   5.115   1.847  0.0000  0.0000  0.0000
16673TPSG   CA417279   1.870   4.901   1.860  0.0000  0.0000  0.0000
16673TPSG   HA417280   1.890   4.902   1.967  0.0000  0.0000  0.0000
16673TPSG   CA317281   1.864   4.780   1.790  0.0000  0.0000  0.0000
16673TPSG   HA317282   1.880   4.687   1.844  0.0000  0.0000  0.0000
16673TPSG    O117283   1.936   4.940   1.511  0.0000  0.0000  0.0000
16673TPSG    H617284   1.936   4.940   1.609  0.0000  0.0000  0.0000
16674TPSG   HA217285   5.228   7.151   7.997  0.0000  0.0000  0.0000
16674TPSG   CA217286   5.255   7.059   7.946  0.0000  0.0000  0.0000
16674TPSG   CA117287   5.280   6.940   8.016  0.0000  0.0000  0.0000
16674TPSG    Si17288   5.280   6.940   8.202  0.0000  0.0000  0.0000
16674TPSG   CA617289   5.321   6.826   7.944  0.0000  0.0000  0.0000
16674TPSG   HH617290   5.336   6.730   7.993  0.0000  0.0000  0.0000
16674TPSG   CA517291   5.344   6.833   7.805  0.0000  0.0000  0.0000
16674TPSG   HA517292   5.376   6.746   7.750  0.0000  0.0000  0.0000
16674TPSG   CA417293   5.321   6.954   7.737  0.0000  0.0000  0.0000
16674TPSG   HA417294   5.340   6.960   7.630  0.0000  0.0000  0.0000
16674TPSG   CA317295   5.274   7.066   7.807  0.0000  0.0000  0.0000
16674TPSG   HA317296   5.257   7.159   7.753  0.0000  0.0000  0.0000
16674TPSG    O117297   5.396   6.940   8.086  0.0000  0.0000  0.0000
16674TPSG    H617298   5.396   6.940   7.988  0.0000  0.0000  0.0000
16675TPSG   HA217299   1.094   5.927   7.963  0.0000  0.0000  0.0000
16675TPSG   CA217300   1.121   5.835   7.912  0.0000  0.0000  0.0000
16675TPSG   CA117301   1.146   5.716   7.982  0.0000  0.0000  0.0000
16675TPSG    Si17302   1.146   5.716   8.168  0.0000  0.0000  0.0000
16675TPSG   CA617303   1.187   5.602   7.910  0.0000  0.0000  0.0000
16675TPSG   HH617304   1.202   5.506   7.959  0.0000  0.0000  0.0000
16675TPSG   CA517305   1.210   5.609   7.771  0.0000  0.0000  0.0000
16675TPSG   HA517306   1.242   5.522   7.716  0.0000  0.0000  0.0000
16675TPSG   CA417307   1.187   5.730   7.703  0.0000  0.0000  0.0000
16675TPSG   HA417308   1.206   5.736   7.596  0.0000  0.0000  0.0000
16675TPSG   CA317309   1.140   5.842   7.773  0.0000  0.0000  0.0000
16675TPSG   HA317310   1.123   5.935   7.719  0.0000  0.0000  0.0000
16675TPSG    O117311   1.262   5.716   8.052  0.0000  0.0000  0.0000
16675TPSG    H617312   1.262   5.716   7.954  0.0000  0.0000  0.0000
16676TPSG   HA217313   7.296   2.484   8.008  0.0000  0.0000  0.0000
16676TPSG   CA217314   7.323   2.392   7.957  0.0000  0.0000  0.0000
16676TPSG   CA117315   7.348   2.273   8.027  0.0000  0.0000  0.0000
16676TPSG    Si17316   7.348   2.273   8.213  0.0000  0.0000  0.0000
16676TPSG   CA617317   7.389   2.159   7.955  0.0000  0.0000  0.0000
16676TPSG   HH617318   7.404   2.063   8.004  0.0000  0.0000  0.0000
16676TPSG   CA517319   7.412   2.166   7.816  0.0000  0.0000  0.0000
16676TPSG   HA517320   7.444   2.079   7.761  0.0000  0.0000  0.0000
16676TPSG   CA417321   7.389   2.287   7.748  0.0000  0.0000  0.0000
16676TPSG   HA417322   7.408   2.293   7.641  0.0000  0.0000  0.0000
16676TPSG   CA317323   7.342   2.399   7.818  0.0000  0.0000  0.0000
16676TPSG   HA317324   7.325   2.492   7.764  0.0000  0.0000  0.0000
16676TPSG    O117325   7.464   2.273   8.097  0.0000  0.0000  0.0000
16676TPSG    H617326   7.464   2.273   7.999  0.0000  0.0000  0.0000
16677TPSG   HA217327   3.941   8.428   8.089  0.0000  0.0000  0.0000
16677TPSG   CA217328   3.968   8.336   8.038  0.0000  0.0000  0.0000
16677TPSG   CA117329   3.993   8.217   8.108  0.0000  0.0000  0.0000
16677TPSG    Si17330   3.993   8.217   8.294  0.0000  0.0000  0.0000
16677TPSG   CA617331   4.034   8.103   8.036  0.0000  0.0000  0.0000
16677TPSG   HH617332   4.049   8.007   8.085  0.0000  0.0000  0.0000
16677TPSG   CA517333   4.057   8.110   7.897  0.0000  0.0000  0.0000
16677TPSG   HA517334   4.089   8.023   7.842  0.0000  0.0000  0.0000
16677TPSG   CA417335   4.034   8.231   7.829  0.0000  0.0000  0.0000
16677TPSG   HA417336   4.053   8.237   7.722  0.0000  0.0000  0.0000
16677TPSG   CA317337   3.987   8.343   7.899  0.0000  0.0000  0.0000
16677TPSG   HA317338   3.970   8.436   7.845  0.0000  0.0000  0.0000
16677TPSG    O117339   4.109   8.217   8.178  0.0000  0.0000  0.0000
16677TPSG    H617340   4.109   8.217   8.080  0.0000  0.0000  0.0000
16678TPSG   HA217341   1.697   6.425   1.616  0.0000  0.0000  0.0000
16678TPSG   CA217342   1.724   6.517   1.667  0.0000  0.0000  0.0000
16678TPSG   CA117343   1.749   6.636   1.597  0.0000  0.0000  0.0000
16678TPSG    Si17344   1.749   6.636   1.411  0.0000  0.0000  0.0000
16678TPSG   CA617345   1.790   6.750   1.669  0.0000  0.0000  0.0000
16678TPSG   HH617346   1.805   6.846   1.620  0.0000  0.0000  0.0000
16678TPSG   CA517347   1.813   6.743   1.808  0.0000  0.0000  0.0000
16678TPSG   HA517348   1.845   6.830   1.863  0.0000  0.0000  0.0000
16678TPSG   CA417349   1.790   6.622   1.876  0.0000  0.0000  0.0000
16678TPSG   HA417350   1.809   6.616   1.983  0.0000  0.0000  0.0000
16678TPSG   CA317351   1.743   6.510   1.806  0.0000  0.0000  0.0000
16678TPSG   HA317352   1.726   6.417   1.860  0.0000  0.0000  0.0000
16678TPSG    O117353   1.865   6.636   1.527  0.0000  0.0000  0.0000
16678TPSG    H617354   1.865   6.636   1.625  0.0000  0.0000  0.0000
16679TPSG   HA217355   1.930   8.760   8.027  0.0000  0.0000  0.0000
16679TPSG   CA217356   1.957   8.668   7.976  0.0000  0.0000  0.0000
16679TPSG   CA117357   1.982   8.549   8.046  0.0000  0.0000  0.0000
16679TPSG    Si17358   1.982   8.549   8.232  0.0000  0.0000  0.0000
16679TPSG   CA617359   2.023   8.435   7.974  0.0000  0.0000  0.0000
16679TPSG   HH617360   2.038   8.339   8.023  0.0000  0.0000  0.0000
16679TPSG   CA517361   2.046   8.442   7.835  0.0000  0.0000  0.0000
16679TPSG   HA517362   2.078   8.355   7.780  0.0000  0.0000  0.0000
16679TPSG   CA417363   2.023   8.563   7.767  0.0000  0.0000  0.0000
16679TPSG   HA417364   2.042   8.569   7.660  0.0000  0.0000  0.0000
16679TPSG   CA317365   1.976   8.675   7.837  0.0000  0.0000  0.0000
16679TPSG   HA317366   1.959   8.768   7.783  0.0000  0.0000  0.0000
16679TPSG    O117367   2.098   8.549   8.116  0.0000  0.0000  0.0000
16679TPSG    H617368   2.098   8.549   8.018  0.0000  0.0000  0.0000
16680TPSG   HA217369   1.399   8.699   8.066  0.0000  0.0000  0.0000
16680TPSG   CA217370   1.426   8.607   8.015  0.0000  0.0000  0.0000
16680TPSG   CA117371   1.451   8.488   8.085  0.0000  0.0000  0.0000
16680TPSG    Si17372   1.451   8.488   8.271  0.0000  0.0000  0.0000
16680TPSG   CA617373   1.492   8.374   8.013  0.0000  0.0000  0.0000
16680TPSG   HH617374   1.507   8.278   8.062  0.0000  0.0000  0.0000
16680TPSG   CA517375   1.515   8.381   7.874  0.0000  0.0000  0.0000
16680TPSG   HA517376   1.547   8.294   7.819  0.0000  0.0000  0.0000
16680TPSG   CA417377   1.492   8.502   7.806  0.0000  0.0000  0.0000
16680TPSG   HA417378   1.511   8.508   7.699  0.0000  0.0000  0.0000
16680TPSG   CA317379   1.445   8.614   7.876  0.0000  0.0000  0.0000
16680TPSG   HA317380   1.428   8.707   7.822  0.0000  0.0000  0.0000
16680TPSG    O117381   1.567   8.488   8.155  0.0000  0.0000  0.0000
16680TPSG    H617382   1.567   8.488   8.057  0.0000  0.0000  0.0000
16681TPSG   HA217383   7.831   1.777   8.012  0.0000  0.0000  0.0000
16681TPSG   CA217384   7.858   1.685   7.961  0.0000  0.0000  0.0000
16681TPSG   CA117385   7.883   1.566   8.031  0.0000  0.0000  0.0000
16681TPSG    Si17386   7.883   1.566   8.217  0.0000  0.0000  0.0000
16681TPSG   CA617387   7.924   1.452   7.959  0.0000  0.0000  0.0000
16681TPSG   HH617388   7.939   1.356   8.008  0.0000  0.0000  0.0000
16681TPSG   CA517389   7.947   1.459   7.820  0.0000  0.0000  0.0000
16681TPSG   HA517390   7.979   1.372   7.765  0.0000  0.0000  0.0000
16681TPSG   CA417391   7.924   1.580   7.752  0.0000  0.0000  0.0000
16681TPSG   HA417392   7.943   1.586   7.645  0.0000  0.0000  0.0000
16681TPSG   CA317393   7.877   1.692   7.822  0.0000  0.0000  0.0000
16681TPSG   HA317394   7.860   1.785   7.768  0.0000  0.0000  0.0000
16681TPSG    O117395   7.999   1.566   8.101  0.0000  0.0000  0.0000
16681TPSG    H617396   7.999   1.566   8.003  0.0000  0.0000  0.0000
16682TPSG   HA217397   6.755   4.666   8.086  0.0000  0.0000  0.0000
16682TPSG   CA217398   6.782   4.574   8.035  0.0000  0.0000  0.0000
16682TPSG   CA117399   6.807   4.455   8.105  0.0000  0.0000  0.0000
16682TPSG    Si17400   6.807   4.455   8.291  0.0000  0.0000  0.0000
16682TPSG   CA617401   6.848   4.341   8.033  0.0000  0.0000  0.0000
16682TPSG   HH617402   6.863   4.245   8.082  0.0000  0.0000  0.0000
16682TPSG   CA517403   6.871   4.348   7.894  0.0000  0.0000  0.0000
16682TPSG   HA517404   6.903   4.261   7.839  0.0000  0.0000  0.0000
16682TPSG   CA417405   6.848   4.469   7.826  0.0000  0.0000  0.0000
16682TPSG   HA417406   6.867   4.475   7.719  0.0000  0.0000  0.0000
16682TPSG   CA317407   6.801   4.581   7.896  0.0000  0.0000  0.0000
16682TPSG   HA317408   6.784   4.674   7.842  0.0000  0.0000  0.0000
16682TPSG    O117409   6.923   4.455   8.175  0.0000  0.0000  0.0000
16682TPSG    H617410   6.923   4.455   8.077  0.0000  0.0000  0.0000
16683TPSG   HA217411   1.716   6.483   7.979  0.0000  0.0000  0.0000
16683TPSG   CA217412   1.743   6.391   7.928  0.0000  0.0000  0.0000
16683TPSG   CA117413   1.768   6.272   7.998  0.0000  0.0000  0.0000
16683TPSG    Si17414   1.768   6.272   8.184  0.0000  0.0000  0.0000
16683TPSG   CA617415   1.809   6.158   7.926  0.0000  0.0000  0.0000
16683TPSG   HH617416   1.824   6.062   7.975  0.0000  0.0000  0.0000
16683TPSG   CA517417   1.832   6.165   7.787  0.0000  0.0000  0.0000
16683TPSG   HA517418   1.864   6.078   7.732  0.0000  0.0000  0.0000
16683TPSG   CA417419   1.809   6.286   7.719  0.0000  0.0000  0.0000
16683TPSG   HA417420   1.828   6.292   7.612  0.0000  0.0000  0.0000
16683TPSG   CA317421   1.762   6.398   7.789  0.0000  0.0000  0.0000
16683TPSG   HA317422   1.745   6.491   7.735  0.0000  0.0000  0.0000
16683TPSG    O117423   1.884   6.272   8.068  0.0000  0.0000  0.0000
16683TPSG    H617424   1.884   6.272   7.970  0.0000  0.0000  0.0000
16684TPSG   HA217425   4.805   6.256   8.031  0.0000  0.0000  0.0000
16684TPSG   CA217426   4.832   6.164   7.980  0.0000  0.0000  0.0000
16684TPSG   CA117427   4.857   6.045   8.050  0.0000  0.0000  0.0000
16684TPSG    Si17428   4.857   6.045   8.236  0.0000  0.0000  0.0000
16684TPSG   CA617429   4.898   5.931   7.978  0.0000  0.0000  0.0000
16684TPSG   HH617430   4.913   5.835   8.027  0.0000  0.0000  0.0000
16684TPSG   CA517431   4.921   5.938   7.839  0.0000  0.0000  0.0000
16684TPSG   HA517432   4.953   5.851   7.784  0.0000  0.0000  0.0000
16684TPSG   CA417433   4.898   6.059   7.771  0.0000  0.0000  0.0000
16684TPSG   HA417434   4.917   6.065   7.664  0.0000  0.0000  0.0000
16684TPSG   CA317435   4.851   6.171   7.841  0.0000  0.0000  0.0000
16684TPSG   HA317436   4.834   6.264   7.787  0.0000  0.0000  0.0000
16684TPSG    O117437   4.973   6.045   8.120  0.0000  0.0000  0.0000
16684TPSG    H617438   4.973   6.045   8.022  0.0000  0.0000  0.0000
16685TPSG   HA217439   8.996   8.009   1.547  0.0000  0.0000  0.0000
16685TPSG   CA217440   9.023   8.101   1.598  0.0000  0.0000  0.0000
16685TPSG   CA117441   9.048   8.220   1.528  0.0000  0.0000  0.0000
16685TPSG    Si17442   9.048   8.220   1.342  0.0000  0.0000  0.0000
16685TPSG   CA617443   9.089   8.334   1.600  0.0000  0.0000  0.0000
16685TPSG   HH617444   9.104   8.430   1.551  0.0000  0.0000  0.0000
16685TPSG   CA517445   9.112   8.327   1.739  0.0000  0.0000  0.0000
16685TPSG   HA517446   9.144   8.414   1.794  0.0000  0.0000  0.0000
16685TPSG   CA417447   9.089   8.206   1.807  0.0000  0.0000  0.0000
16685TPSG   HA417448   9.108   8.200   1.914  0.0000  0.0000  0.0000
16685TPSG   CA317449   9.042   8.094   1.737  0.0000  0.0000  0.0000
16685TPSG   HA317450   9.025   8.001   1.791  0.0000  0.0000  0.0000
16685TPSG    O117451   9.164   8.220   1.458  0.0000  0.0000  0.0000
16685TPSG    H617452   9.164   8.220   1.556  0.0000  0.0000  0.0000
16686TPSG   HA217453   0.894   2.805   8.078  0.0000  0.0000  0.0000
16686TPSG   CA217454   0.921   2.713   8.027  0.0000  0.0000  0.0000
16686TPSG   CA117455   0.946   2.594   8.097  0.0000  0.0000  0.0000
16686TPSG    Si17456   0.946   2.594   8.283  0.0000  0.0000  0.0000
16686TPSG   CA617457   0.987   2.480   8.025  0.0000  0.0000  0.0000
16686TPSG   HH617458   1.002   2.384   8.074  0.0000  0.0000  0.0000
16686TPSG   CA517459   1.010   2.487   7.886  0.0000  0.0000  0.0000
16686TPSG   HA517460   1.042   2.400   7.831  0.0000  0.0000  0.0000
16686TPSG   CA417461   0.987   2.608   7.818  0.0000  0.0000  0.0000
16686TPSG   HA417462   1.006   2.614   7.711  0.0000  0.0000  0.0000
16686TPSG   CA317463   0.940   2.720   7.888  0.0000  0.0000  0.0000
16686TPSG   HA317464   0.923   2.813   7.834  0.0000  0.0000  0.0000
16686TPSG    O117465   1.062   2.594   8.167  0.0000  0.0000  0.0000
16686TPSG    H617466   1.062   2.594   8.069  0.0000  0.0000  0.0000
16687TPSG   HA217467   1.419   0.820   1.533  0.0000  0.0000  0.0000
16687TPSG   CA217468   1.446   0.912   1.584  0.0000  0.0000  0.0000
16687TPSG   CA117469   1.471   1.031   1.514  0.0000  0.0000  0.0000
16687TPSG    Si17470   1.471   1.031   1.328  0.0000  0.0000  0.0000
16687TPSG   CA617471   1.512   1.145   1.586  0.0000  0.0000  0.0000
16687TPSG   HH617472   1.527   1.241   1.537  0.0000  0.0000  0.0000
16687TPSG   CA517473   1.535   1.138   1.725  0.0000  0.0000  0.0000
16687TPSG   HA517474   1.567   1.225   1.780  0.0000  0.0000  0.0000
16687TPSG   CA417475   1.512   1.017   1.793  0.0000  0.0000  0.0000
16687TPSG   HA417476   1.531   1.011   1.900  0.0000  0.0000  0.0000
16687TPSG   CA317477   1.465   0.905   1.723  0.0000  0.0000  0.0000
16687TPSG   HA317478   1.448   0.812   1.777  0.0000  0.0000  0.0000
16687TPSG    O117479   1.587   1.031   1.444  0.0000  0.0000  0.0000
16687TPSG    H617480   1.587   1.031   1.542  0.0000  0.0000  0.0000
16688TPSG   HA217481   8.291   0.594   1.498  0.0000  0.0000  0.0000
16688TPSG   CA217482   8.318   0.686   1.549  0.0000  0.0000  0.0000
16688TPSG   CA117483   8.343   0.805   1.479  0.0000  0.0000  0.0000
16688TPSG    Si17484   8.343   0.805   1.293  0.0000  0.0000  0.0000
16688TPSG   CA617485   8.384   0.919   1.551  0.0000  0.0000  0.0000
16688TPSG   HH617486   8.399   1.015   1.502  0.0000  0.0000  0.0000
16688TPSG   CA517487   8.407   0.912   1.690  0.0000  0.0000  0.0000
16688TPSG   HA517488   8.439   0.999   1.745  0.0000  0.0000  0.0000
16688TPSG   CA417489   8.384   0.791   1.758  0.0000  0.0000  0.0000
16688TPSG   HA417490   8.403   0.785   1.865  0.0000  0.0000  0.0000
16688TPSG   CA317491   8.337   0.679   1.688  0.0000  0.0000  0.0000
16688TPSG   HA317492   8.320   0.586   1.742  0.0000  0.0000  0.0000
16688TPSG    O117493   8.459   0.805   1.409  0.0000  0.0000  0.0000
16688TPSG    H617494   8.459   0.805   1.507  0.0000  0.0000  0.0000
16689TPSG   HA217495   1.999   5.044   1.596  0.0000  0.0000  0.0000
16689TPSG   CA217496   1.933   5.112   1.647  0.0000  0.0000  0.0000
16689TPSG   CA117497   1.842   5.194   1.577  0.0000  0.0000  0.0000
16689TPSG    Si17498   1.842   5.194   1.391  0.0000  0.0000  0.0000
16689TPSG   CA617499   1.764   5.287   1.649  0.0000  0.0000  0.0000
16689TPSG   HH617500   1.689   5.348   1.600  0.0000  0.0000  0.0000
16689TPSG   CA517501   1.781   5.302   1.788  0.0000  0.0000  0.0000
16689TPSG   HA517502   1.722   5.374   1.843  0.0000  0.0000  0.0000
16689TPSG   CA417503   1.874   5.223   1.856  0.0000  0.0000  0.0000
16689TPSG   HA417504   1.889   5.236   1.963  0.0000  0.0000  0.0000
16689TPSG   CA317505   1.948   5.126   1.786  0.0000  0.0000  0.0000
16689TPSG   HA317506   2.020   5.064   1.840  0.0000  0.0000  0.0000
16689TPSG    O117507   1.900   5.294   1.507  0.0000  0.0000  0.0000
16689TPSG    H617508   1.900   5.294   1.605  0.0000  0.0000  0.0000
16690TPSG   HA217509   8.952  -0.040   1.495  0.0000  0.0000  0.0000
16690TPSG   CA217510   8.979   0.052   1.546  0.0000  0.0000  0.0000
16690TPSG   CA117511   9.004   0.171   1.476  0.0000  0.0000  0.0000
16690TPSG    Si17512   9.004   0.171   1.290  0.0000  0.0000  0.0000
16690TPSG   CA617513   9.045   0.285   1.548  0.0000  0.0000  0.0000
16690TPSG   HH617514   9.060   0.381   1.499  0.0000  0.0000  0.0000
16690TPSG   CA517515   9.068   0.278   1.687  0.0000  0.0000  0.0000
16690TPSG   HA517516   9.100   0.365   1.742  0.0000  0.0000  0.0000
16690TPSG   CA417517   9.045   0.157   1.755  0.0000  0.0000  0.0000
16690TPSG   HA417518   9.064   0.151   1.862  0.0000  0.0000  0.0000
16690TPSG   CA317519   8.998   0.045   1.685  0.0000  0.0000  0.0000
16690TPSG   HA317520   8.981  -0.048   1.739  0.0000  0.0000  0.0000
16690TPSG    O117521   9.120   0.171   1.406  0.0000  0.0000  0.0000
16690TPSG    H617522   9.120   0.171   1.504  0.0000  0.0000  0.0000
16691TPSG   HA217523   7.237   3.373   1.578  0.0000  0.0000  0.0000
16691TPSG   CA217524   7.264   3.465   1.629  0.0000  0.0000  0.0000
16691TPSG   CA117525   7.289   3.584   1.559  0.0000  0.0000  0.0000
16691TPSG    Si17526   7.289   3.584   1.373  0.0000  0.0000  0.0000
16691TPSG   CA617527   7.330   3.698   1.631  0.0000  0.0000  0.0000
16691TPSG   HH617528   7.345   3.794   1.582  0.0000  0.0000  0.0000
16691TPSG   CA517529   7.353   3.691   1.770  0.0000  0.0000  0.0000
16691TPSG   HA517530   7.385   3.778   1.825  0.0000  0.0000  0.0000
16691TPSG   CA417531   7.330   3.570   1.838  0.0000  0.0000  0.0000
16691TPSG   HA417532   7.349   3.564   1.945  0.0000  0.0000  0.0000
16691TPSG   CA317533   7.283   3.458   1.768  0.0000  0.0000  0.0000
16691TPSG   HA317534   7.266   3.365   1.822  0.0000  0.0000  0.0000
16691TPSG    O117535   7.405   3.584   1.489  0.0000  0.0000  0.0000
16691TPSG    H617536   7.405   3.584   1.587  0.0000  0.0000  0.0000
16692TPSG   HA217537   0.018   0.790   8.069  0.0000  0.0000  0.0000
16692TPSG   CA217538   0.045   0.698   8.018  0.0000  0.0000  0.0000
16692TPSG   CA117539   0.070   0.579   8.088  0.0000  0.0000  0.0000
16692TPSG    Si17540   0.070   0.579   8.274  0.0000  0.0000  0.0000
16692TPSG   CA617541   0.111   0.465   8.016  0.0000  0.0000  0.0000
16692TPSG   HH617542   0.126   0.369   8.065  0.0000  0.0000  0.0000
16692TPSG   CA517543   0.134   0.472   7.877  0.0000  0.0000  0.0000
16692TPSG   HA517544   0.166   0.385   7.822  0.0000  0.0000  0.0000
16692TPSG   CA417545   0.111   0.593   7.809  0.0000  0.0000  0.0000
16692TPSG   HA417546   0.130   0.599   7.702  0.0000  0.0000  0.0000
16692TPSG   CA317547   0.064   0.705   7.879  0.0000  0.0000  0.0000
16692TPSG   HA317548   0.047   0.798   7.825  0.0000  0.0000  0.0000
16692TPSG    O117549   0.186   0.579   8.158  0.0000  0.0000  0.0000
16692TPSG    H617550   0.186   0.579   8.060  0.0000  0.0000  0.0000
16693TPSG   HA217551   8.338   1.313   8.026  0.0000  0.0000  0.0000
16693TPSG   CA217552   8.365   1.221   7.975  0.0000  0.0000  0.0000
16693TPSG   CA117553   8.390   1.102   8.045  0.0000  0.0000  0.0000
16693TPSG    Si17554   8.390   1.102   8.231  0.0000  0.0000  0.0000
16693TPSG   CA617555   8.431   0.988   7.973  0.0000  0.0000  0.0000
16693TPSG   HH617556   8.446   0.892   8.022  0.0000  0.0000  0.0000
16693TPSG   CA517557   8.454   0.995   7.834  0.0000  0.0000  0.0000
16693TPSG   HA517558   8.486   0.908   7.779  0.0000  0.0000  0.0000
16693TPSG   CA417559   8.431   1.116   7.766  0.0000  0.0000  0.0000
16693TPSG   HA417560   8.450   1.122   7.659  0.0000  0.0000  0.0000
16693TPSG   CA317561   8.384   1.228   7.836  0.0000  0.0000  0.0000
16693TPSG   HA317562   8.367   1.321   7.782  0.0000  0.0000  0.0000
16693TPSG    O117563   8.506   1.102   8.115  0.0000  0.0000  0.0000
16693TPSG    H617564   8.506   1.102   8.017  0.0000  0.0000  0.0000
16694TPSG   HA217565   5.075   5.462   1.521  0.0000  0.0000  0.0000
16694TPSG   CA217566   5.102   5.554   1.572  0.0000  0.0000  0.0000
16694TPSG   CA117567   5.127   5.673   1.502  0.0000  0.0000  0.0000
16694TPSG    Si17568   5.127   5.673   1.316  0.0000  0.0000  0.0000
16694TPSG   CA617569   5.168   5.787   1.574  0.0000  0.0000  0.0000
16694TPSG   HH617570   5.183   5.883   1.525  0.0000  0.0000  0.0000
16694TPSG   CA517571   5.191   5.780   1.713  0.0000  0.0000  0.0000
16694TPSG   HA517572   5.223   5.867   1.768  0.0000  0.0000  0.0000
16694TPSG   CA417573   5.168   5.659   1.781  0.0000  0.0000  0.0000
16694TPSG   HA417574   5.187   5.653   1.888  0.0000  0.0000  0.0000
16694TPSG   CA317575   5.121   5.547   1.711  0.0000  0.0000  0.0000
16694TPSG   HA317576   5.104   5.454   1.765  0.0000  0.0000  0.0000
16694TPSG    O117577   5.243   5.673   1.432  0.0000  0.0000  0.0000
16694TPSG    H617578   5.243   5.673   1.530  0.0000  0.0000  0.0000
16695TPSG   HA217579   2.448   5.043   1.613  0.0000  0.0000  0.0000
16695TPSG   CA217580   2.475   5.135   1.664  0.0000  0.0000  0.0000
16695TPSG   CA117581   2.500   5.254   1.594  0.0000  0.0000  0.0000
16695TPSG    Si17582   2.500   5.254   1.408  0.0000  0.0000  0.0000
16695TPSG   CA617583   2.541   5.368   1.666  0.0000  0.0000  0.0000
16695TPSG   HH617584   2.556   5.464   1.617  0.0000  0.0000  0.0000
16695TPSG   CA517585   2.564   5.361   1.805  0.0000  0.0000  0.0000
16695TPSG   HA517586   2.596   5.448   1.860  0.0000  0.0000  0.0000
16695TPSG   CA417587   2.541   5.240   1.873  0.0000  0.0000  0.0000
16695TPSG   HA417588   2.560   5.234   1.980  0.0000  0.0000  0.0000
16695TPSG   CA317589   2.494   5.128   1.803  0.0000  0.0000  0.0000
16695TPSG   HA317590   2.477   5.035   1.857  0.0000  0.0000  0.0000
16695TPSG    O117591   2.616   5.254   1.524  0.0000  0.0000  0.0000
16695TPSG    H617592   2.616   5.254   1.622  0.0000  0.0000  0.0000
16696TPSG   HA217593   0.481   1.585   1.485  0.0000  0.0000  0.0000
16696TPSG   CA217594   0.508   1.677   1.536  0.0000  0.0000  0.0000
16696TPSG   CA117595   0.533   1.796   1.466  0.0000  0.0000  0.0000
16696TPSG    Si17596   0.533   1.796   1.280  0.0000  0.0000  0.0000
16696TPSG   CA617597   0.574   1.910   1.538  0.0000  0.0000  0.0000
16696TPSG   HH617598   0.589   2.006   1.489  0.0000  0.0000  0.0000
16696TPSG   CA517599   0.597   1.903   1.677  0.0000  0.0000  0.0000
16696TPSG   HA517600   0.629   1.990   1.732  0.0000  0.0000  0.0000
16696TPSG   CA417601   0.574   1.782   1.745  0.0000  0.0000  0.0000
16696TPSG   HA417602   0.593   1.776   1.852  0.0000  0.0000  0.0000
16696TPSG   CA317603   0.527   1.670   1.675  0.0000  0.0000  0.0000
16696TPSG   HA317604   0.510   1.577   1.729  0.0000  0.0000  0.0000
16696TPSG    O117605   0.649   1.796   1.396  0.0000  0.0000  0.0000
16696TPSG    H617606   0.649   1.796   1.494  0.0000  0.0000  0.0000
16697TPSG   HA217607   9.351   7.796   8.091  0.0000  0.0000  0.0000
16697TPSG   CA217608   9.378   7.704   8.040  0.0000  0.0000  0.0000
16697TPSG   CA117609   9.403   7.585   8.110  0.0000  0.0000  0.0000
16697TPSG    Si17610   9.403   7.585   8.296  0.0000  0.0000  0.0000
16697TPSG   CA617611   9.444   7.471   8.038  0.0000  0.0000  0.0000
16697TPSG   HH617612   9.459   7.375   8.087  0.0000  0.0000  0.0000
16697TPSG   CA517613   9.467   7.478   7.899  0.0000  0.0000  0.0000
16697TPSG   HA517614   9.499   7.391   7.844  0.0000  0.0000  0.0000
16697TPSG   CA417615   9.444   7.599   7.831  0.0000  0.0000  0.0000
16697TPSG   HA417616   9.463   7.605   7.724  0.0000  0.0000  0.0000
16697TPSG   CA317617   9.397   7.711   7.901  0.0000  0.0000  0.0000
16697TPSG   HA317618   9.380   7.804   7.847  0.0000  0.0000  0.0000
16697TPSG    O117619   9.519   7.585   8.180  0.0000  0.0000  0.0000
16697TPSG    H617620   9.519   7.585   8.082  0.0000  0.0000  0.0000
16698TPSG   HA217621   5.545   0.895   1.605  0.0000  0.0000  0.0000
16698TPSG   CA217622   5.572   0.987   1.656  0.0000  0.0000  0.0000
16698TPSG   CA117623   5.597   1.106   1.586  0.0000  0.0000  0.0000
16698TPSG    Si17624   5.597   1.106   1.400  0.0000  0.0000  0.0000
16698TPSG   CA617625   5.638   1.220   1.658  0.0000  0.0000  0.0000
16698TPSG   HH617626   5.653   1.316   1.609  0.0000  0.0000  0.0000
16698TPSG   CA517627   5.661   1.213   1.797  0.0000  0.0000  0.0000
16698TPSG   HA517628   5.693   1.300   1.852  0.0000  0.0000  0.0000
16698TPSG   CA417629   5.638   1.092   1.865  0.0000  0.0000  0.0000
16698TPSG   HA417630   5.657   1.086   1.972  0.0000  0.0000  0.0000
16698TPSG   CA317631   5.591   0.980   1.795  0.0000  0.0000  0.0000
16698TPSG   HA317632   5.574   0.887   1.849  0.0000  0.0000  0.0000
16698TPSG    O117633   5.713   1.106   1.516  0.0000  0.0000  0.0000
16698TPSG    H617634   5.713   1.106   1.614  0.0000  0.0000  0.0000
16699TPSG   HA217635   0.548   8.842   1.592  0.0000  0.0000  0.0000
16699TPSG   CA217636   0.575   8.934   1.643  0.0000  0.0000  0.0000
16699TPSG   CA117637   0.600   9.053   1.573  0.0000  0.0000  0.0000
16699TPSG    Si17638   0.600   9.053   1.387  0.0000  0.0000  0.0000
16699TPSG   CA617639   0.641   9.167   1.645  0.0000  0.0000  0.0000
16699TPSG   HH617640   0.656   9.263   1.596  0.0000  0.0000  0.0000
16699TPSG   CA517641   0.664   9.160   1.784  0.0000  0.0000  0.0000
16699TPSG   HA517642   0.696   9.247   1.839  0.0000  0.0000  0.0000
16699TPSG   CA417643   0.641   9.039   1.852  0.0000  0.0000  0.0000
16699TPSG   HA417644   0.660   9.033   1.959  0.0000  0.0000  0.0000
16699TPSG   CA317645   0.594   8.927   1.782  0.0000  0.0000  0.0000
16699TPSG   HA317646   0.577   8.834   1.836  0.0000  0.0000  0.0000
16699TPSG    O117647   0.716   9.053   1.503  0.0000  0.0000  0.0000
16699TPSG    H617648   0.716   9.053   1.601  0.0000  0.0000  0.0000
16700TPSG   HA217649   8.845   0.722   1.542  0.0000  0.0000  0.0000
16700TPSG   CA217650   8.872   0.814   1.593  0.0000  0.0000  0.0000
16700TPSG   CA117651   8.897   0.933   1.523  0.0000  0.0000  0.0000
16700TPSG    Si17652   8.897   0.933   1.337  0.0000  0.0000  0.0000
16700TPSG   CA617653   8.938   1.047   1.595  0.0000  0.0000  0.0000
16700TPSG   HH617654   8.953   1.143   1.546  0.0000  0.0000  0.0000
16700TPSG   CA517655   8.961   1.040   1.734  0.0000  0.0000  0.0000
16700TPSG   HA517656   8.993   1.127   1.789  0.0000  0.0000  0.0000
16700TPSG   CA417657   8.938   0.919   1.802  0.0000  0.0000  0.0000
16700TPSG   HA417658   8.957   0.913   1.909  0.0000  0.0000  0.0000
16700TPSG   CA317659   8.891   0.807   1.732  0.0000  0.0000  0.0000
16700TPSG   HA317660   8.874   0.714   1.786  0.0000  0.0000  0.0000
16700TPSG    O117661   9.013   0.933   1.453  0.0000  0.0000  0.0000
16700TPSG    H617662   9.013   0.933   1.551  0.0000  0.0000  0.0000
16701TPSG   HA217663   9.535   0.903   1.558  0.0000  0.0000  0.0000
16701TPSG   CA217664   9.496   0.990   1.609  0.0000  0.0000  0.0000
16701TPSG   CA117665   9.439   1.098   1.539  0.0000  0.0000  0.0000
16701TPSG    Si17666   9.439   1.098   1.353  0.0000  0.0000  0.0000
16701TPSG   CA617667   9.397   1.212   1.611  0.0000  0.0000  0.0000
16701TPSG   HH617668   9.347   1.295   1.562  0.0000  0.0000  0.0000
16701TPSG   CA517669   9.419   1.220   1.750  0.0000  0.0000  0.0000
16701TPSG   HA517670   9.388   1.309   1.805  0.0000  0.0000  0.0000
16701TPSG   CA417671   9.479   1.114   1.818  0.0000  0.0000  0.0000
16701TPSG   HA417672   9.498   1.121   1.925  0.0000  0.0000  0.0000
16701TPSG   CA317673   9.515   0.998   1.748  0.0000  0.0000  0.0000
16701TPSG   HA317674   9.562   0.915   1.802  0.0000  0.0000  0.0000
16701TPSG    O117675   9.528   1.173   1.469  0.0000  0.0000  0.0000
16701TPSG    H617676   9.528   1.173   1.567  0.0000  0.0000  0.0000
16702TPSG   HA217677   2.835   1.857   1.563  0.0000  0.0000  0.0000
16702TPSG   CA217678   2.862   1.949   1.614  0.0000  0.0000  0.0000
16702TPSG   CA117679   2.887   2.068   1.544  0.0000  0.0000  0.0000
16702TPSG    Si17680   2.887   2.068   1.358  0.0000  0.0000  0.0000
16702TPSG   CA617681   2.928   2.182   1.616  0.0000  0.0000  0.0000
16702TPSG   HH617682   2.943   2.278   1.567  0.0000  0.0000  0.0000
16702TPSG   CA517683   2.951   2.175   1.755  0.0000  0.0000  0.0000
16702TPSG   HA517684   2.983   2.262   1.810  0.0000  0.0000  0.0000
16702TPSG   CA417685   2.928   2.054   1.823  0.0000  0.0000  0.0000
16702TPSG   HA417686   2.947   2.048   1.930  0.0000  0.0000  0.0000
16702TPSG   CA317687   2.881   1.942   1.753  0.0000  0.0000  0.0000
16702TPSG   HA317688   2.864   1.849   1.807  0.0000  0.0000  0.0000
16702TPSG    O117689   3.003   2.068   1.474  0.0000  0.0000  0.0000
16702TPSG    H617690   3.003   2.068   1.572  0.0000  0.0000  0.0000
16703TPSG   HA217691   7.132   8.884   7.980  0.0000  0.0000  0.0000
16703TPSG   CA217692   7.159   8.792   7.929  0.0000  0.0000  0.0000
16703TPSG   CA117693   7.184   8.673   7.999  0.0000  0.0000  0.0000
16703TPSG    Si17694   7.184   8.673   8.185  0.0000  0.0000  0.0000
16703TPSG   CA617695   7.225   8.559   7.927  0.0000  0.0000  0.0000
16703TPSG   HH617696   7.240   8.463   7.976  0.0000  0.0000  0.0000
16703TPSG   CA517697   7.248   8.566   7.788  0.0000  0.0000  0.0000
16703TPSG   HA517698   7.280   8.479   7.733  0.0000  0.0000  0.0000
16703TPSG   CA417699   7.225   8.687   7.720  0.0000  0.0000  0.0000
16703TPSG   HA417700   7.244   8.693   7.613  0.0000  0.0000  0.0000
16703TPSG   CA317701   7.178   8.799   7.790  0.0000  0.0000  0.0000
16703TPSG   HA317702   7.161   8.892   7.736  0.0000  0.0000  0.0000
16703TPSG    O117703   7.300   8.673   8.069  0.0000  0.0000  0.0000
16703TPSG    H617704   7.300   8.673   7.971  0.0000  0.0000  0.0000
16704TPSG   HA217705   3.429   1.054   1.649  0.0000  0.0000  0.0000
16704TPSG   CA217706   3.456   1.146   1.700  0.0000  0.0000  0.0000
16704TPSG   CA117707   3.481   1.265   1.630  0.0000  0.0000  0.0000
16704TPSG    Si17708   3.481   1.265   1.444  0.0000  0.0000  0.0000
16704TPSG   CA617709   3.522   1.379   1.702  0.0000  0.0000  0.0000
16704TPSG   HH617710   3.537   1.475   1.653  0.0000  0.0000  0.0000
16704TPSG   CA517711   3.545   1.372   1.841  0.0000  0.0000  0.0000
16704TPSG   HA517712   3.577   1.459   1.896  0.0000  0.0000  0.0000
16704TPSG   CA417713   3.522   1.251   1.909  0.0000  0.0000  0.0000
16704TPSG   HA417714   3.541   1.245   2.016  0.0000  0.0000  0.0000
16704TPSG   CA317715   3.475   1.139   1.839  0.0000  0.0000  0.0000
16704TPSG   HA317716   3.458   1.046   1.893  0.0000  0.0000  0.0000
16704TPSG    O117717   3.597   1.265   1.560  0.0000  0.0000  0.0000
16704TPSG    H617718   3.597   1.265   1.658  0.0000  0.0000  0.0000
16705TPSG   HA217719   6.133   6.301   8.124  0.0000  0.0000  0.0000
16705TPSG   CA217720   6.160   6.209   8.073  0.0000  0.0000  0.0000
16705TPSG   CA117721   6.185   6.090   8.143  0.0000  0.0000  0.0000
16705TPSG    Si17722   6.185   6.090   8.329  0.0000  0.0000  0.0000
16705TPSG   CA617723   6.226   5.976   8.071  0.0000  0.0000  0.0000
16705TPSG   HH617724   6.241   5.880   8.120  0.0000  0.0000  0.0000
16705TPSG   CA517725   6.249   5.983   7.932  0.0000  0.0000  0.0000
16705TPSG   HA517726   6.281   5.896   7.877  0.0000  0.0000  0.0000
16705TPSG   CA417727   6.226   6.104   7.864  0.0000  0.0000  0.0000
16705TPSG   HA417728   6.245   6.110   7.757  0.0000  0.0000  0.0000
16705TPSG   CA317729   6.179   6.216   7.934  0.0000  0.0000  0.0000
16705TPSG   HA317730   6.162   6.309   7.880  0.0000  0.0000  0.0000
16705TPSG    O117731   6.301   6.090   8.213  0.0000  0.0000  0.0000
16705TPSG    H617732   6.301   6.090   8.115  0.0000  0.0000  0.0000
16706TPSG   HA217733   8.150   4.211   1.609  0.0000  0.0000  0.0000
16706TPSG   CA217734   8.177   4.303   1.660  0.0000  0.0000  0.0000
16706TPSG   CA117735   8.202   4.422   1.590  0.0000  0.0000  0.0000
16706TPSG    Si17736   8.202   4.422   1.404  0.0000  0.0000  0.0000
16706TPSG   CA617737   8.243   4.536   1.662  0.0000  0.0000  0.0000
16706TPSG   HH617738   8.258   4.632   1.613  0.0000  0.0000  0.0000
16706TPSG   CA517739   8.266   4.529   1.801  0.0000  0.0000  0.0000
16706TPSG   HA517740   8.298   4.616   1.856  0.0000  0.0000  0.0000
16706TPSG   CA417741   8.243   4.408   1.869  0.0000  0.0000  0.0000
16706TPSG   HA417742   8.262   4.402   1.976  0.0000  0.0000  0.0000
16706TPSG   CA317743   8.196   4.296   1.799  0.0000  0.0000  0.0000
16706TPSG   HA317744   8.179   4.203   1.853  0.0000  0.0000  0.0000
16706TPSG    O117745   8.318   4.422   1.520  0.0000  0.0000  0.0000
16706TPSG    H617746   8.318   4.422   1.618  0.0000  0.0000  0.0000
16707TPSG   HA217747   7.359   0.506   8.042  0.0000  0.0000  0.0000
16707TPSG   CA217748   7.386   0.414   7.991  0.0000  0.0000  0.0000
16707TPSG   CA117749   7.411   0.295   8.061  0.0000  0.0000  0.0000
16707TPSG    Si17750   7.411   0.295   8.247  0.0000  0.0000  0.0000
16707TPSG   CA617751   7.452   0.181   7.989  0.0000  0.0000  0.0000
16707TPSG   HH617752   7.467   0.085   8.038  0.0000  0.0000  0.0000
16707TPSG   CA517753   7.475   0.188   7.850  0.0000  0.0000  0.0000
16707TPSG   HA517754   7.507   0.101   7.795  0.0000  0.0000  0.0000
16707TPSG   CA417755   7.452   0.309   7.782  0.0000  0.0000  0.0000
16707TPSG   HA417756   7.471   0.315   7.675  0.0000  0.0000  0.0000
16707TPSG   CA317757   7.405   0.421   7.852  0.0000  0.0000  0.0000
16707TPSG   HA317758   7.388   0.514   7.798  0.0000  0.0000  0.0000
16707TPSG    O117759   7.527   0.295   8.131  0.0000  0.0000  0.0000
16707TPSG    H617760   7.527   0.295   8.033  0.0000  0.0000  0.0000
16708TPSG   HA217761   7.491   6.849   7.978  0.0000  0.0000  0.0000
16708TPSG   CA217762   7.518   6.757   7.927  0.0000  0.0000  0.0000
16708TPSG   CA117763   7.543   6.638   7.997  0.0000  0.0000  0.0000
16708TPSG    Si17764   7.543   6.638   8.183  0.0000  0.0000  0.0000
16708TPSG   CA617765   7.584   6.524   7.925  0.0000  0.0000  0.0000
16708TPSG   HH617766   7.599   6.428   7.974  0.0000  0.0000  0.0000
16708TPSG   CA517767   7.607   6.531   7.786  0.0000  0.0000  0.0000
16708TPSG   HA517768   7.639   6.444   7.731  0.0000  0.0000  0.0000
16708TPSG   CA417769   7.584   6.652   7.718  0.0000  0.0000  0.0000
16708TPSG   HA417770   7.603   6.658   7.611  0.0000  0.0000  0.0000
16708TPSG   CA317771   7.537   6.764   7.788  0.0000  0.0000  0.0000
16708TPSG   HA317772   7.520   6.857   7.734  0.0000  0.0000  0.0000
16708TPSG    O117773   7.659   6.638   8.067  0.0000  0.0000  0.0000
16708TPSG    H617774   7.659   6.638   7.969  0.0000  0.0000  0.0000
16709TPSG   HA217775   2.978   8.066   8.044  0.0000  0.0000  0.0000
16709TPSG   CA217776   3.005   7.974   7.993  0.0000  0.0000  0.0000
16709TPSG   CA117777   3.030   7.855   8.063  0.0000  0.0000  0.0000
16709TPSG    Si17778   3.030   7.855   8.249  0.0000  0.0000  0.0000
16709TPSG   CA617779   3.071   7.741   7.991  0.0000  0.0000  0.0000
16709TPSG   HH617780   3.086   7.645   8.040  0.0000  0.0000  0.0000
16709TPSG   CA517781   3.094   7.748   7.852  0.0000  0.0000  0.0000
16709TPSG   HA517782   3.126   7.661   7.797  0.0000  0.0000  0.0000
16709TPSG   CA417783   3.071   7.869   7.784  0.0000  0.0000  0.0000
16709TPSG   HA417784   3.090   7.875   7.677  0.0000  0.0000  0.0000
16709TPSG   CA317785   3.024   7.981   7.854  0.0000  0.0000  0.0000
16709TPSG   HA317786   3.007   8.074   7.800  0.0000  0.0000  0.0000
16709TPSG    O117787   3.146   7.855   8.133  0.0000  0.0000  0.0000
16709TPSG    H617788   3.146   7.855   8.035  0.0000  0.0000  0.0000
16710TPSG   HA217789   4.138   6.925   1.529  0.0000  0.0000  0.0000
16710TPSG   CA217790   4.165   7.017   1.580  0.0000  0.0000  0.0000
16710TPSG   CA117791   4.190   7.136   1.510  0.0000  0.0000  0.0000
16710TPSG    Si17792   4.190   7.136   1.324  0.0000  0.0000  0.0000
16710TPSG   CA617793   4.231   7.250   1.582  0.0000  0.0000  0.0000
16710TPSG   HH617794   4.246   7.346   1.533  0.0000  0.0000  0.0000
16710TPSG   CA517795   4.254   7.243   1.721  0.0000  0.0000  0.0000
16710TPSG   HA517796   4.286   7.330   1.776  0.0000  0.0000  0.0000
16710TPSG   CA417797   4.231   7.122   1.789  0.0000  0.0000  0.0000
16710TPSG   HA417798   4.250   7.116   1.896  0.0000  0.0000  0.0000
16710TPSG   CA317799   4.184   7.010   1.719  0.0000  0.0000  0.0000
16710TPSG   HA317800   4.167   6.917   1.773  0.0000  0.0000  0.0000
16710TPSG    O117801   4.306   7.136   1.440  0.0000  0.0000  0.0000
16710TPSG    H617802   4.306   7.136   1.538  0.0000  0.0000  0.0000
16711TPSG   HA217803   4.315   9.182   1.602  0.0000  0.0000  0.0000
16711TPSG   CA217804   4.342   9.274   1.653  0.0000  0.0000  0.0000
16711TPSG   CA117805   4.367   9.393   1.583  0.0000  0.0000  0.0000
16711TPSG    Si17806   4.367   9.393   1.397  0.0000  0.0000  0.0000
16711TPSG   CA617807   4.408   9.507   1.655  0.0000  0.0000  0.0000
16711TPSG   HH617808   4.423   9.603   1.606  0.0000  0.0000  0.0000
16711TPSG   CA517809   4.431   9.500   1.794  0.0000  0.0000  0.0000
16711TPSG   HA517810   4.463   9.587   1.849  0.0000  0.0000  0.0000
16711TPSG   CA417811   4.408   9.379   1.862  0.0000  0.0000  0.0000
16711TPSG   HA417812   4.427   9.373   1.969  0.0000  0.0000  0.0000
16711TPSG   CA317813   4.361   9.267   1.792  0.0000  0.0000  0.0000
16711TPSG   HA317814   4.344   9.174   1.846  0.0000  0.0000  0.0000
16711TPSG    O117815   4.483   9.393   1.513  0.0000  0.0000  0.0000
16711TPSG    H617816   4.483   9.393   1.611  0.0000  0.0000  0.0000
16712TPSG   HA217817   0.830   2.811   1.511  0.0000  0.0000  0.0000
16712TPSG   CA217818   0.857   2.903   1.562  0.0000  0.0000  0.0000
16712TPSG   CA117819   0.882   3.022   1.492  0.0000  0.0000  0.0000
16712TPSG    Si17820   0.882   3.022   1.306  0.0000  0.0000  0.0000
16712TPSG   CA617821   0.923   3.136   1.564  0.0000  0.0000  0.0000
16712TPSG   HH617822   0.938   3.232   1.515  0.0000  0.0000  0.0000
16712TPSG   CA517823   0.946   3.129   1.703  0.0000  0.0000  0.0000
16712TPSG   HA517824   0.978   3.216   1.758  0.0000  0.0000  0.0000
16712TPSG   CA417825   0.923   3.008   1.771  0.0000  0.0000  0.0000
16712TPSG   HA417826   0.942   3.002   1.878  0.0000  0.0000  0.0000
16712TPSG   CA317827   0.876   2.896   1.701  0.0000  0.0000  0.0000
16712TPSG   HA317828   0.859   2.803   1.755  0.0000  0.0000  0.0000
16712TPSG    O117829   0.998   3.022   1.422  0.0000  0.0000  0.0000
16712TPSG    H617830   0.998   3.022   1.520  0.0000  0.0000  0.0000
16713TPSG   HA217831   8.199   5.376   7.962  0.0000  0.0000  0.0000
16713TPSG   CA217832   8.226   5.284   7.911  0.0000  0.0000  0.0000
16713TPSG   CA117833   8.251   5.165   7.981  0.0000  0.0000  0.0000
16713TPSG    Si17834   8.251   5.165   8.167  0.0000  0.0000  0.0000
16713TPSG   CA617835   8.292   5.051   7.909  0.0000  0.0000  0.0000
16713TPSG   HH617836   8.307   4.955   7.958  0.0000  0.0000  0.0000
16713TPSG   CA517837   8.315   5.058   7.770  0.0000  0.0000  0.0000
16713TPSG   HA517838   8.347   4.971   7.715  0.0000  0.0000  0.0000
16713TPSG   CA417839   8.292   5.179   7.702  0.0000  0.0000  0.0000
16713TPSG   HA417840   8.311   5.185   7.595  0.0000  0.0000  0.0000
16713TPSG   CA317841   8.245   5.291   7.772  0.0000  0.0000  0.0000
16713TPSG   HA317842   8.228   5.384   7.718  0.0000  0.0000  0.0000
16713TPSG    O117843   8.367   5.165   8.051  0.0000  0.0000  0.0000
16713TPSG    H617844   8.367   5.165   7.953  0.0000  0.0000  0.0000
16714TPSG   HA217845   6.802   2.917   1.608  0.0000  0.0000  0.0000
16714TPSG   CA217846   6.829   3.009   1.659  0.0000  0.0000  0.0000
16714TPSG   CA117847   6.854   3.128   1.589  0.0000  0.0000  0.0000
16714TPSG    Si17848   6.854   3.128   1.403  0.0000  0.0000  0.0000
16714TPSG   CA617849   6.895   3.242   1.661  0.0000  0.0000  0.0000
16714TPSG   HH617850   6.910   3.338   1.612  0.0000  0.0000  0.0000
16714TPSG   CA517851   6.918   3.235   1.800  0.0000  0.0000  0.0000
16714TPSG   HA517852   6.950   3.322   1.855  0.0000  0.0000  0.0000
16714TPSG   CA417853   6.895   3.114   1.868  0.0000  0.0000  0.0000
16714TPSG   HA417854   6.914   3.108   1.975  0.0000  0.0000  0.0000
16714TPSG   CA317855   6.848   3.002   1.798  0.0000  0.0000  0.0000
16714TPSG   HA317856   6.831   2.909   1.852  0.0000  0.0000  0.0000
16714TPSG    O117857   6.970   3.128   1.519  0.0000  0.0000  0.0000
16714TPSG    H617858   6.970   3.128   1.617  0.0000  0.0000  0.0000
16715TPSG   HA217859   3.141   9.208   1.605  0.0000  0.0000  0.0000
16715TPSG   CA217860   3.168   9.300   1.656  0.0000  0.0000  0.0000
16715TPSG   CA117861   3.193   9.419   1.586  0.0000  0.0000  0.0000
16715TPSG    Si17862   3.193   9.419   1.400  0.0000  0.0000  0.0000
16715TPSG   CA617863   3.234   9.533   1.658  0.0000  0.0000  0.0000
16715TPSG   HH617864   3.249   9.629   1.609  0.0000  0.0000  0.0000
16715TPSG   CA517865   3.257   9.526   1.797  0.0000  0.0000  0.0000
16715TPSG   HA517866   3.289   9.613   1.852  0.0000  0.0000  0.0000
16715TPSG   CA417867   3.234   9.405   1.865  0.0000  0.0000  0.0000
16715TPSG   HA417868   3.253   9.399   1.972  0.0000  0.0000  0.0000
16715TPSG   CA317869   3.187   9.293   1.795  0.0000  0.0000  0.0000
16715TPSG   HA317870   3.170   9.200   1.849  0.0000  0.0000  0.0000
16715TPSG    O117871   3.309   9.419   1.516  0.0000  0.0000  0.0000
16715TPSG    H617872   3.309   9.419   1.614  0.0000  0.0000  0.0000
16716TPSG   HA217873   4.914   9.346   7.997  0.0000  0.0000  0.0000
16716TPSG   CA217874   4.821   9.369   7.946  0.0000  0.0000  0.0000
16716TPSG   CA117875   4.705   9.407   8.016  0.0000  0.0000  0.0000
16716TPSG    Si17876   4.705   9.407   8.202  0.0000  0.0000  0.0000
16716TPSG   CA617877   4.586   9.429   7.944  0.0000  0.0000  0.0000
16716TPSG   HH617878   4.495   9.463   7.993  0.0000  0.0000  0.0000
16716TPSG   CA517879   4.581   9.405   7.805  0.0000  0.0000  0.0000
16716TPSG   HA517880   4.489   9.421   7.750  0.0000  0.0000  0.0000
16716TPSG   CA417881   4.696   9.365   7.737  0.0000  0.0000  0.0000
16716TPSG   HA417882   4.692   9.345   7.630  0.0000  0.0000  0.0000
16716TPSG   CA317883   4.817   9.349   7.807  0.0000  0.0000  0.0000
16716TPSG   HA317884   4.906   9.318   7.753  0.0000  0.0000  0.0000
16716TPSG    O117885   4.647   9.307   8.086  0.0000  0.0000  0.0000
16716TPSG    H617886   4.647   9.307   7.988  0.0000  0.0000  0.0000
16717TPSG   HA217887   6.852   1.969   1.495  0.0000  0.0000  0.0000
16717TPSG   CA217888   6.879   2.061   1.546  0.0000  0.0000  0.0000
16717TPSG   CA117889   6.904   2.180   1.476  0.0000  0.0000  0.0000
16717TPSG    Si17890   6.904   2.180   1.290  0.0000  0.0000  0.0000
16717TPSG   CA617891   6.945   2.294   1.548  0.0000  0.0000  0.0000
16717TPSG   HH617892   6.960   2.390   1.499  0.0000  0.0000  0.0000
16717TPSG   CA517893   6.968   2.287   1.687  0.0000  0.0000  0.0000
16717TPSG   HA517894   7.000   2.374   1.742  0.0000  0.0000  0.0000
16717TPSG   CA417895   6.945   2.166   1.755  0.0000  0.0000  0.0000
16717TPSG   HA417896   6.964   2.160   1.862  0.0000  0.0000  0.0000
16717TPSG   CA317897   6.898   2.054   1.685  0.0000  0.0000  0.0000
16717TPSG   HA317898   6.881   1.961   1.739  0.0000  0.0000  0.0000
16717TPSG    O117899   7.020   2.180   1.406  0.0000  0.0000  0.0000
16717TPSG    H617900   7.020   2.180   1.504  0.0000  0.0000  0.0000
16718TPSG   HA217901   7.097   8.214   1.516  0.0000  0.0000  0.0000
16718TPSG   CA217902   7.124   8.306   1.567  0.0000  0.0000  0.0000
16718TPSG   CA117903   7.149   8.425   1.497  0.0000  0.0000  0.0000
16718TPSG    Si17904   7.149   8.425   1.311  0.0000  0.0000  0.0000
16718TPSG   CA617905   7.190   8.539   1.569  0.0000  0.0000  0.0000
16718TPSG   HH617906   7.205   8.635   1.520  0.0000  0.0000  0.0000
16718TPSG   CA517907   7.213   8.532   1.708  0.0000  0.0000  0.0000
16718TPSG   HA517908   7.245   8.619   1.763  0.0000  0.0000  0.0000
16718TPSG   CA417909   7.190   8.411   1.776  0.0000  0.0000  0.0000
16718TPSG   HA417910   7.209   8.405   1.883  0.0000  0.0000  0.0000
16718TPSG   CA317911   7.143   8.299   1.706  0.0000  0.0000  0.0000
16718TPSG   HA317912   7.126   8.206   1.760  0.0000  0.0000  0.0000
16718TPSG    O117913   7.265   8.425   1.427  0.0000  0.0000  0.0000
16718TPSG    H617914   7.265   8.425   1.525  0.0000  0.0000  0.0000
16719TPSG   HA217915   4.278   5.597   8.037  0.0000  0.0000  0.0000
16719TPSG   CA217916   4.305   5.505   7.986  0.0000  0.0000  0.0000
16719TPSG   CA117917   4.330   5.386   8.056  0.0000  0.0000  0.0000
16719TPSG    Si17918   4.330   5.386   8.242  0.0000  0.0000  0.0000
16719TPSG   CA617919   4.371   5.272   7.984  0.0000  0.0000  0.0000
16719TPSG   HH617920   4.386   5.176   8.033  0.0000  0.0000  0.0000
16719TPSG   CA517921   4.394   5.279   7.845  0.0000  0.0000  0.0000
16719TPSG   HA517922   4.426   5.192   7.790  0.0000  0.0000  0.0000
16719TPSG   CA417923   4.371   5.400   7.777  0.0000  0.0000  0.0000
16719TPSG   HA417924   4.390   5.406   7.670  0.0000  0.0000  0.0000
16719TPSG   CA317925   4.324   5.512   7.847  0.0000  0.0000  0.0000
16719TPSG   HA317926   4.307   5.605   7.793  0.0000  0.0000  0.0000
16719TPSG    O117927   4.446   5.386   8.126  0.0000  0.0000  0.0000
16719TPSG    H617928   4.446   5.386   8.028  0.0000  0.0000  0.0000
16720TPSG   HA217929   6.798   1.799   8.036  0.0000  0.0000  0.0000
16720TPSG   CA217930   6.759   1.712   7.985  0.0000  0.0000  0.0000
16720TPSG   CA117931   6.702   1.604   8.055  0.0000  0.0000  0.0000
16720TPSG    Si17932   6.702   1.604   8.241  0.0000  0.0000  0.0000
16720TPSG   CA617933   6.660   1.490   7.983  0.0000  0.0000  0.0000
16720TPSG   HH617934   6.610   1.407   8.032  0.0000  0.0000  0.0000
16720TPSG   CA517935   6.682   1.482   7.844  0.0000  0.0000  0.0000
16720TPSG   HA517936   6.651   1.393   7.789  0.0000  0.0000  0.0000
16720TPSG   CA417937   6.742   1.588   7.776  0.0000  0.0000  0.0000
16720TPSG   HA417938   6.761   1.581   7.669  0.0000  0.0000  0.0000
16720TPSG   CA317939   6.778   1.704   7.846  0.0000  0.0000  0.0000
16720TPSG   HA317940   6.825   1.787   7.792  0.0000  0.0000  0.0000
16720TPSG    O117941   6.791   1.529   8.125  0.0000  0.0000  0.0000
16720TPSG    H617942   6.791   1.529   8.027  0.0000  0.0000  0.0000
16721TPSG   HA217943   7.334   0.962   1.524  0.0000  0.0000  0.0000
16721TPSG   CA217944   7.361   1.054   1.575  0.0000  0.0000  0.0000
16721TPSG   CA117945   7.386   1.173   1.505  0.0000  0.0000  0.0000
16721TPSG    Si17946   7.386   1.173   1.319  0.0000  0.0000  0.0000
16721TPSG   CA617947   7.427   1.287   1.577  0.0000  0.0000  0.0000
16721TPSG   HH617948   7.442   1.383   1.528  0.0000  0.0000  0.0000
16721TPSG   CA517949   7.450   1.280   1.716  0.0000  0.0000  0.0000
16721TPSG   HA517950   7.482   1.367   1.771  0.0000  0.0000  0.0000
16721TPSG   CA417951   7.427   1.159   1.784  0.0000  0.0000  0.0000
16721TPSG   HA417952   7.446   1.153   1.891  0.0000  0.0000  0.0000
16721TPSG   CA317953   7.380   1.047   1.714  0.0000  0.0000  0.0000
16721TPSG   HA317954   7.363   0.954   1.768  0.0000  0.0000  0.0000
16721TPSG    O117955   7.502   1.173   1.435  0.0000  0.0000  0.0000
16721TPSG    H617956   7.502   1.173   1.533  0.0000  0.0000  0.0000
16722TPSG   HA217957   4.668   1.320   1.596  0.0000  0.0000  0.0000
16722TPSG   CA217958   4.695   1.412   1.647  0.0000  0.0000  0.0000
16722TPSG   CA117959   4.720   1.531   1.577  0.0000  0.0000  0.0000
16722TPSG    Si17960   4.720   1.531   1.391  0.0000  0.0000  0.0000
16722TPSG   CA617961   4.761   1.645   1.649  0.0000  0.0000  0.0000
16722TPSG   HH617962   4.776   1.741   1.600  0.0000  0.0000  0.0000
16722TPSG   CA517963   4.784   1.638   1.788  0.0000  0.0000  0.0000
16722TPSG   HA517964   4.816   1.725   1.843  0.0000  0.0000  0.0000
16722TPSG   CA417965   4.761   1.517   1.856  0.0000  0.0000  0.0000
16722TPSG   HA417966   4.780   1.511   1.963  0.0000  0.0000  0.0000
16722TPSG   CA317967   4.714   1.405   1.786  0.0000  0.0000  0.0000
16722TPSG   HA317968   4.697   1.312   1.840  0.0000  0.0000  0.0000
16722TPSG    O117969   4.836   1.531   1.507  0.0000  0.0000  0.0000
16722TPSG    H617970   4.836   1.531   1.605  0.0000  0.0000  0.0000
16723TPSG   HA217971   8.869   7.471   1.515  0.0000  0.0000  0.0000
16723TPSG   CA217972   8.896   7.563   1.566  0.0000  0.0000  0.0000
16723TPSG   CA117973   8.921   7.682   1.496  0.0000  0.0000  0.0000
16723TPSG    Si17974   8.921   7.682   1.310  0.0000  0.0000  0.0000
16723TPSG   CA617975   8.962   7.796   1.568  0.0000  0.0000  0.0000
16723TPSG   HH617976   8.977   7.892   1.519  0.0000  0.0000  0.0000
16723TPSG   CA517977   8.985   7.789   1.707  0.0000  0.0000  0.0000
16723TPSG   HA517978   9.017   7.876   1.762  0.0000  0.0000  0.0000
16723TPSG   CA417979   8.962   7.668   1.775  0.0000  0.0000  0.0000
16723TPSG   HA417980   8.981   7.662   1.882  0.0000  0.0000  0.0000
16723TPSG   CA317981   8.915   7.556   1.705  0.0000  0.0000  0.0000
16723TPSG   HA317982   8.898   7.463   1.759  0.0000  0.0000  0.0000
16723TPSG    O117983   9.037   7.682   1.426  0.0000  0.0000  0.0000
16723TPSG    H617984   9.037   7.682   1.524  0.0000  0.0000  0.0000
16724TPSG   HA217985   8.124   2.540   8.008  0.0000  0.0000  0.0000
16724TPSG   CA217986   8.151   2.448   7.957  0.0000  0.0000  0.0000
16724TPSG   CA117987   8.176   2.329   8.027  0.0000  0.0000  0.0000
16724TPSG    Si17988   8.176   2.329   8.213  0.0000  0.0000  0.0000
16724TPSG   CA617989   8.217   2.215   7.955  0.0000  0.0000  0.0000
16724TPSG   HH617990   8.232   2.119   8.004  0.0000  0.0000  0.0000
16724TPSG   CA517991   8.240   2.222   7.816  0.0000  0.0000  0.0000
16724TPSG   HA517992   8.272   2.135   7.761  0.0000  0.0000  0.0000
16724TPSG   CA417993   8.217   2.343   7.748  0.0000  0.0000  0.0000
16724TPSG   HA417994   8.236   2.349   7.641  0.0000  0.0000  0.0000
16724TPSG   CA317995   8.170   2.455   7.818  0.0000  0.0000  0.0000
16724TPSG   HA317996   8.153   2.548   7.764  0.0000  0.0000  0.0000
16724TPSG    O117997   8.292   2.329   8.097  0.0000  0.0000  0.0000
16724TPSG    H617998   8.292   2.329   7.999  0.0000  0.0000  0.0000
16725TPSG   HA217999   2.430   1.987   1.618  0.0000  0.0000  0.0000
16725TPSG   CA218000   2.457   2.079   1.669  0.0000  0.0000  0.0000
16725TPSG   CA118001   2.482   2.198   1.599  0.0000  0.0000  0.0000
16725TPSG    Si18002   2.482   2.198   1.413  0.0000  0.0000  0.0000
16725TPSG   CA618003   2.523   2.312   1.671  0.0000  0.0000  0.0000
16725TPSG   HH618004   2.538   2.408   1.622  0.0000  0.0000  0.0000
16725TPSG   CA518005   2.546   2.305   1.810  0.0000  0.0000  0.0000
16725TPSG   HA518006   2.578   2.392   1.865  0.0000  0.0000  0.0000
16725TPSG   CA418007   2.523   2.184   1.878  0.0000  0.0000  0.0000
16725TPSG   HA418008   2.542   2.178   1.985  0.0000  0.0000  0.0000
16725TPSG   CA318009   2.476   2.072   1.808  0.0000  0.0000  0.0000
16725TPSG   HA318010   2.459   1.979   1.862  0.0000  0.0000  0.0000
16725TPSG    O118011   2.598   2.198   1.529  0.0000  0.0000  0.0000
16725TPSG    H618012   2.598   2.198   1.627  0.0000  0.0000  0.0000
16726TPSG   HA218013   3.335   0.178   1.562  0.0000  0.0000  0.0000
16726TPSG   CA218014   3.362   0.270   1.613  0.0000  0.0000  0.0000
16726TPSG   CA118015   3.387   0.389   1.543  0.0000  0.0000  0.0000
16726TPSG    Si18016   3.387   0.389   1.357  0.0000  0.0000  0.0000
16726TPSG   CA618017   3.428   0.503   1.615  0.0000  0.0000  0.0000
16726TPSG   HH618018   3.443   0.599   1.566  0.0000  0.0000  0.0000
16726TPSG   CA518019   3.451   0.496   1.754  0.0000  0.0000  0.0000
16726TPSG   HA518020   3.483   0.583   1.809  0.0000  0.0000  0.0000
16726TPSG   CA418021   3.428   0.375   1.822  0.0000  0.0000  0.0000
16726TPSG   HA418022   3.447   0.369   1.929  0.0000  0.0000  0.0000
16726TPSG   CA318023   3.381   0.263   1.752  0.0000  0.0000  0.0000
16726TPSG   HA318024   3.364   0.170   1.806  0.0000  0.0000  0.0000
16726TPSG    O118025   3.503   0.389   1.473  0.0000  0.0000  0.0000
16726TPSG    H618026   3.503   0.389   1.571  0.0000  0.0000  0.0000
16727TPSG   HA218027   2.683  -0.063   1.529  0.0000  0.0000  0.0000
16727TPSG   CA218028   2.710   0.029   1.580  0.0000  0.0000  0.0000
16727TPSG   CA118029   2.735   0.148   1.510  0.0000  0.0000  0.0000
16727TPSG    Si18030   2.735   0.148   1.324  0.0000  0.0000  0.0000
16727TPSG   CA618031   2.776   0.262   1.582  0.0000  0.0000  0.0000
16727TPSG   HH618032   2.791   0.358   1.533  0.0000  0.0000  0.0000
16727TPSG   CA518033   2.799   0.255   1.721  0.0000  0.0000  0.0000
16727TPSG   HA518034   2.831   0.342   1.776  0.0000  0.0000  0.0000
16727TPSG   CA418035   2.776   0.134   1.789  0.0000  0.0000  0.0000
16727TPSG   HA418036   2.795   0.128   1.896  0.0000  0.0000  0.0000
16727TPSG   CA318037   2.729   0.022   1.719  0.0000  0.0000  0.0000
16727TPSG   HA318038   2.712  -0.071   1.773  0.0000  0.0000  0.0000
16727TPSG    O118039   2.851   0.148   1.440  0.0000  0.0000  0.0000
16727TPSG    H618040   2.851   0.148   1.538  0.0000  0.0000  0.0000
16728TPSG   HA218041   5.831   7.661   1.603  0.0000  0.0000  0.0000
16728TPSG   CA218042   5.858   7.753   1.654  0.0000  0.0000  0.0000
16728TPSG   CA118043   5.883   7.872   1.584  0.0000  0.0000  0.0000
16728TPSG    Si18044   5.883   7.872   1.398  0.0000  0.0000  0.0000
16728TPSG   CA618045   5.924   7.986   1.656  0.0000  0.0000  0.0000
16728TPSG   HH618046   5.939   8.082   1.607  0.0000  0.0000  0.0000
16728TPSG   CA518047   5.947   7.979   1.795  0.0000  0.0000  0.0000
16728TPSG   HA518048   5.979   8.066   1.850  0.0000  0.0000  0.0000
16728TPSG   CA418049   5.924   7.858   1.863  0.0000  0.0000  0.0000
16728TPSG   HA418050   5.943   7.852   1.970  0.0000  0.0000  0.0000
16728TPSG   CA318051   5.877   7.746   1.793  0.0000  0.0000  0.0000
16728TPSG   HA318052   5.860   7.653   1.847  0.0000  0.0000  0.0000
16728TPSG    O118053   5.999   7.872   1.514  0.0000  0.0000  0.0000
16728TPSG    H618054   5.999   7.872   1.612  0.0000  0.0000  0.0000
16729TPSG   HA218055   8.744   6.107   1.592  0.0000  0.0000  0.0000
16729TPSG   CA218056   8.771   6.199   1.643  0.0000  0.0000  0.0000
16729TPSG   CA118057   8.796   6.318   1.573  0.0000  0.0000  0.0000
16729TPSG    Si18058   8.796   6.318   1.387  0.0000  0.0000  0.0000
16729TPSG   CA618059   8.837   6.432   1.645  0.0000  0.0000  0.0000
16729TPSG   HH618060   8.852   6.528   1.596  0.0000  0.0000  0.0000
16729TPSG   CA518061   8.860   6.425   1.784  0.0000  0.0000  0.0000
16729TPSG   HA518062   8.892   6.512   1.839  0.0000  0.0000  0.0000
16729TPSG   CA418063   8.837   6.304   1.852  0.0000  0.0000  0.0000
16729TPSG   HA418064   8.856   6.298   1.959  0.0000  0.0000  0.0000
16729TPSG   CA318065   8.790   6.192   1.782  0.0000  0.0000  0.0000
16729TPSG   HA318066   8.773   6.099   1.836  0.0000  0.0000  0.0000
16729TPSG    O118067   8.912   6.318   1.503  0.0000  0.0000  0.0000
16729TPSG    H618068   8.912   6.318   1.601  0.0000  0.0000  0.0000
16730TPSG   HA218069   4.762   6.721   1.544  0.0000  0.0000  0.0000
16730TPSG   CA218070   4.789   6.813   1.595  0.0000  0.0000  0.0000
16730TPSG   CA118071   4.814   6.932   1.525  0.0000  0.0000  0.0000
16730TPSG    Si18072   4.814   6.932   1.339  0.0000  0.0000  0.0000
16730TPSG   CA618073   4.855   7.046   1.597  0.0000  0.0000  0.0000
16730TPSG   HH618074   4.870   7.142   1.548  0.0000  0.0000  0.0000
16730TPSG   CA518075   4.878   7.039   1.736  0.0000  0.0000  0.0000
16730TPSG   HA518076   4.910   7.126   1.791  0.0000  0.0000  0.0000
16730TPSG   CA418077   4.855   6.918   1.804  0.0000  0.0000  0.0000
16730TPSG   HA418078   4.874   6.912   1.911  0.0000  0.0000  0.0000
16730TPSG   CA318079   4.808   6.806   1.734  0.0000  0.0000  0.0000
16730TPSG   HA318080   4.791   6.713   1.788  0.0000  0.0000  0.0000
16730TPSG    O118081   4.930   6.932   1.455  0.0000  0.0000  0.0000
16730TPSG    H618082   4.930   6.932   1.553  0.0000  0.0000  0.0000
16731TPSG   HA218083   7.887   1.376   1.467  0.0000  0.0000  0.0000
16731TPSG   CA218084   7.914   1.468   1.518  0.0000  0.0000  0.0000
16731TPSG   CA118085   7.939   1.587   1.448  0.0000  0.0000  0.0000
16731TPSG    Si18086   7.939   1.587   1.262  0.0000  0.0000  0.0000
16731TPSG   CA618087   7.980   1.701   1.520  0.0000  0.0000  0.0000
16731TPSG   HH618088   7.995   1.797   1.471  0.0000  0.0000  0.0000
16731TPSG   CA518089   8.003   1.694   1.659  0.0000  0.0000  0.0000
16731TPSG   HA518090   8.035   1.781   1.714  0.0000  0.0000  0.0000
16731TPSG   CA418091   7.980   1.573   1.727  0.0000  0.0000  0.0000
16731TPSG   HA418092   7.999   1.567   1.834  0.0000  0.0000  0.0000
16731TPSG   CA318093   7.933   1.461   1.657  0.0000  0.0000  0.0000
16731TPSG   HA318094   7.916   1.368   1.711  0.0000  0.0000  0.0000
16731TPSG    O118095   8.055   1.587   1.378  0.0000  0.0000  0.0000
16731TPSG    H618096   8.055   1.587   1.476  0.0000  0.0000  0.0000
16732TPSG   HA218097   6.772   9.719   8.034  0.0000  0.0000  0.0000
16732TPSG   CA218098   6.799   9.627   7.983  0.0000  0.0000  0.0000
16732TPSG   CA118099   6.824   9.508   8.053  0.0000  0.0000  0.0000
16732TPSG    Si18100   6.824   9.508   8.239  0.0000  0.0000  0.0000
16732TPSG   CA618101   6.865   9.394   7.981  0.0000  0.0000  0.0000
16732TPSG   HH618102   6.880   9.298   8.030  0.0000  0.0000  0.0000
16732TPSG   CA518103   6.888   9.401   7.842  0.0000  0.0000  0.0000
16732TPSG   HA518104   6.920   9.314   7.787  0.0000  0.0000  0.0000
16732TPSG   CA418105   6.865   9.522   7.774  0.0000  0.0000  0.0000
16732TPSG   HA418106   6.884   9.528   7.667  0.0000  0.0000  0.0000
16732TPSG   CA318107   6.818   9.634   7.844  0.0000  0.0000  0.0000
16732TPSG   HA318108   6.801   9.727   7.790  0.0000  0.0000  0.0000
16732TPSG    O118109   6.940   9.508   8.123  0.0000  0.0000  0.0000
16732TPSG    H618110   6.940   9.508   8.025  0.0000  0.0000  0.0000
16733TPSG   HA218111   0.988   7.809   1.557  0.0000  0.0000  0.0000
16733TPSG   CA218112   1.015   7.901   1.608  0.0000  0.0000  0.0000
16733TPSG   CA118113   1.040   8.020   1.538  0.0000  0.0000  0.0000
16733TPSG    Si18114   1.040   8.020   1.352  0.0000  0.0000  0.0000
16733TPSG   CA618115   1.081   8.134   1.610  0.0000  0.0000  0.0000
16733TPSG   HH618116   1.096   8.230   1.561  0.0000  0.0000  0.0000
16733TPSG   CA518117   1.104   8.127   1.749  0.0000  0.0000  0.0000
16733TPSG   HA518118   1.136   8.214   1.804  0.0000  0.0000  0.0000
16733TPSG   CA418119   1.081   8.006   1.817  0.0000  0.0000  0.0000
16733TPSG   HA418120   1.100   8.000   1.924  0.0000  0.0000  0.0000
16733TPSG   CA318121   1.034   7.894   1.747  0.0000  0.0000  0.0000
16733TPSG   HA318122   1.017   7.801   1.801  0.0000  0.0000  0.0000
16733TPSG    O118123   1.156   8.020   1.468  0.0000  0.0000  0.0000
16733TPSG    H618124   1.156   8.020   1.566  0.0000  0.0000  0.0000
16734TPSG   HA218125   7.591  -0.174   1.496  0.0000  0.0000  0.0000
16734TPSG   CA218126   7.618  -0.082   1.547  0.0000  0.0000  0.0000
16734TPSG   CA118127   7.643   0.037   1.477  0.0000  0.0000  0.0000
16734TPSG    Si18128   7.643   0.037   1.291  0.0000  0.0000  0.0000
16734TPSG   CA618129   7.684   0.151   1.549  0.0000  0.0000  0.0000
16734TPSG   HH618130   7.699   0.247   1.500  0.0000  0.0000  0.0000
16734TPSG   CA518131   7.707   0.144   1.688  0.0000  0.0000  0.0000
16734TPSG   HA518132   7.739   0.231   1.743  0.0000  0.0000  0.0000
16734TPSG   CA418133   7.684   0.023   1.756  0.0000  0.0000  0.0000
16734TPSG   HA418134   7.703   0.017   1.863  0.0000  0.0000  0.0000
16734TPSG   CA318135   7.637  -0.089   1.686  0.0000  0.0000  0.0000
16734TPSG   HA318136   7.620  -0.182   1.740  0.0000  0.0000  0.0000
16734TPSG    O118137   7.759   0.037   1.407  0.0000  0.0000  0.0000
16734TPSG    H618138   7.759   0.037   1.505  0.0000  0.0000  0.0000
16735TPSG   HA218139   4.529   3.098   1.476  0.0000  0.0000  0.0000
16735TPSG   CA218140   4.556   3.190   1.527  0.0000  0.0000  0.0000
16735TPSG   CA118141   4.581   3.309   1.457  0.0000  0.0000  0.0000
16735TPSG    Si18142   4.581   3.309   1.271  0.0000  0.0000  0.0000
16735TPSG   CA618143   4.622   3.423   1.529  0.0000  0.0000  0.0000
16735TPSG   HH618144   4.637   3.519   1.480  0.0000  0.0000  0.0000
16735TPSG   CA518145   4.645   3.416   1.668  0.0000  0.0000  0.0000
16735TPSG   HA518146   4.677   3.503   1.723  0.0000  0.0000  0.0000
16735TPSG   CA418147   4.622   3.295   1.736  0.0000  0.0000  0.0000
16735TPSG   HA418148   4.641   3.289   1.843  0.0000  0.0000  0.0000
16735TPSG   CA318149   4.575   3.183   1.666  0.0000  0.0000  0.0000
16735TPSG   HA318150   4.558   3.090   1.720  0.0000  0.0000  0.0000
16735TPSG    O118151   4.697   3.309   1.387  0.0000  0.0000  0.0000
16735TPSG    H618152   4.697   3.309   1.485  0.0000  0.0000  0.0000
16736TPSG   HA218153   7.905   0.473   8.052  0.0000  0.0000  0.0000
16736TPSG   CA218154   7.932   0.381   8.001  0.0000  0.0000  0.0000
16736TPSG   CA118155   7.957   0.262   8.071  0.0000  0.0000  0.0000
16736TPSG    Si18156   7.957   0.262   8.257  0.0000  0.0000  0.0000
16736TPSG   CA618157   7.998   0.148   7.999  0.0000  0.0000  0.0000
16736TPSG   HH618158   8.013   0.052   8.048  0.0000  0.0000  0.0000
16736TPSG   CA518159   8.021   0.155   7.860  0.0000  0.0000  0.0000
16736TPSG   HA518160   8.053   0.068   7.805  0.0000  0.0000  0.0000
16736TPSG   CA418161   7.998   0.276   7.792  0.0000  0.0000  0.0000
16736TPSG   HA418162   8.017   0.282   7.685  0.0000  0.0000  0.0000
16736TPSG   CA318163   7.951   0.388   7.862  0.0000  0.0000  0.0000
16736TPSG   HA318164   7.934   0.481   7.808  0.0000  0.0000  0.0000
16736TPSG    O118165   8.073   0.262   8.141  0.0000  0.0000  0.0000
16736TPSG    H618166   8.073   0.262   8.043  0.0000  0.0000  0.0000
16737TPSG   HA218167   3.614   8.257   1.602  0.0000  0.0000  0.0000
16737TPSG   CA218168   3.641   8.349   1.653  0.0000  0.0000  0.0000
16737TPSG   CA118169   3.666   8.468   1.583  0.0000  0.0000  0.0000
16737TPSG    Si18170   3.666   8.468   1.397  0.0000  0.0000  0.0000
16737TPSG   CA618171   3.707   8.582   1.655  0.0000  0.0000  0.0000
16737TPSG   HH618172   3.722   8.678   1.606  0.0000  0.0000  0.0000
16737TPSG   CA518173   3.730   8.575   1.794  0.0000  0.0000  0.0000
16737TPSG   HA518174   3.762   8.662   1.849  0.0000  0.0000  0.0000
16737TPSG   CA418175   3.707   8.454   1.862  0.0000  0.0000  0.0000
16737TPSG   HA418176   3.726   8.448   1.969  0.0000  0.0000  0.0000
16737TPSG   CA318177   3.660   8.342   1.792  0.0000  0.0000  0.0000
16737TPSG   HA318178   3.643   8.249   1.846  0.0000  0.0000  0.0000
16737TPSG    O118179   3.782   8.468   1.513  0.0000  0.0000  0.0000
16737TPSG    H618180   3.782   8.468   1.611  0.0000  0.0000  0.0000
16738TPSG   HA218181   8.534   2.181   7.968  0.0000  0.0000  0.0000
16738TPSG   CA218182   8.561   2.089   7.917  0.0000  0.0000  0.0000
16738TPSG   CA118183   8.586   1.970   7.987  0.0000  0.0000  0.0000
16738TPSG    Si18184   8.586   1.970   8.173  0.0000  0.0000  0.0000
16738TPSG   CA618185   8.627   1.856   7.915  0.0000  0.0000  0.0000
16738TPSG   HH618186   8.642   1.760   7.964  0.0000  0.0000  0.0000
16738TPSG   CA518187   8.650   1.863   7.776  0.0000  0.0000  0.0000
16738TPSG   HA518188   8.682   1.776   7.721  0.0000  0.0000  0.0000
16738TPSG   CA418189   8.627   1.984   7.708  0.0000  0.0000  0.0000
16738TPSG   HA418190   8.646   1.990   7.601  0.0000  0.0000  0.0000
16738TPSG   CA318191   8.580   2.096   7.778  0.0000  0.0000  0.0000
16738TPSG   HA318192   8.563   2.189   7.724  0.0000  0.0000  0.0000
16738TPSG    O118193   8.702   1.970   8.057  0.0000  0.0000  0.0000
16738TPSG    H618194   8.702   1.970   7.959  0.0000  0.0000  0.0000
16739TPSG   HA218195   0.064   7.812   1.574  0.0000  0.0000  0.0000
16739TPSG   CA218196   0.091   7.904   1.625  0.0000  0.0000  0.0000
16739TPSG   CA118197   0.116   8.023   1.555  0.0000  0.0000  0.0000
16739TPSG    Si18198   0.116   8.023   1.369  0.0000  0.0000  0.0000
16739TPSG   CA618199   0.157   8.137   1.627  0.0000  0.0000  0.0000
16739TPSG   HH618200   0.172   8.233   1.578  0.0000  0.0000  0.0000
16739TPSG   CA518201   0.180   8.130   1.766  0.0000  0.0000  0.0000
16739TPSG   HA518202   0.212   8.217   1.821  0.0000  0.0000  0.0000
16739TPSG   CA418203   0.157   8.009   1.834  0.0000  0.0000  0.0000
16739TPSG   HA418204   0.176   8.003   1.941  0.0000  0.0000  0.0000
16739TPSG   CA318205   0.110   7.897   1.764  0.0000  0.0000  0.0000
16739TPSG   HA318206   0.093   7.804   1.818  0.0000  0.0000  0.0000
16739TPSG    O118207   0.232   8.023   1.485  0.0000  0.0000  0.0000
16739TPSG    H618208   0.232   8.023   1.583  0.0000  0.0000  0.0000
16740TPSG   HA218209   0.857   4.434   1.617  0.0000  0.0000  0.0000
16740TPSG   CA218210   0.884   4.526   1.668  0.0000  0.0000  0.0000
16740TPSG   CA118211   0.909   4.645   1.598  0.0000  0.0000  0.0000
16740TPSG    Si18212   0.909   4.645   1.412  0.0000  0.0000  0.0000
16740TPSG   CA618213   0.950   4.759   1.670  0.0000  0.0000  0.0000
16740TPSG   HH618214   0.965   4.855   1.621  0.0000  0.0000  0.0000
16740TPSG   CA518215   0.973   4.752   1.809  0.0000  0.0000  0.0000
16740TPSG   HA518216   1.005   4.839   1.864  0.0000  0.0000  0.0000
16740TPSG   CA418217   0.950   4.631   1.877  0.0000  0.0000  0.0000
16740TPSG   HA418218   0.969   4.625   1.984  0.0000  0.0000  0.0000
16740TPSG   CA318219   0.903   4.519   1.807  0.0000  0.0000  0.0000
16740TPSG   HA318220   0.886   4.426   1.861  0.0000  0.0000  0.0000
16740TPSG    O118221   1.025   4.645   1.528  0.0000  0.0000  0.0000
16740TPSG    H618222   1.025   4.645   1.626  0.0000  0.0000  0.0000
16741TPSG   HA218223   9.024   4.431   1.669  0.0000  0.0000  0.0000
16741TPSG   CA218224   9.051   4.523   1.720  0.0000  0.0000  0.0000
16741TPSG   CA118225   9.076   4.642   1.650  0.0000  0.0000  0.0000
16741TPSG    Si18226   9.076   4.642   1.464  0.0000  0.0000  0.0000
16741TPSG   CA618227   9.117   4.756   1.722  0.0000  0.0000  0.0000
16741TPSG   HH618228   9.132   4.852   1.673  0.0000  0.0000  0.0000
16741TPSG   CA518229   9.140   4.749   1.861  0.0000  0.0000  0.0000
16741TPSG   HA518230   9.172   4.836   1.916  0.0000  0.0000  0.0000
16741TPSG   CA418231   9.117   4.628   1.929  0.0000  0.0000  0.0000
16741TPSG   HA418232   9.136   4.622   2.036  0.0000  0.0000  0.0000
16741TPSG   CA318233   9.070   4.516   1.859  0.0000  0.0000  0.0000
16741TPSG   HA318234   9.053   4.423   1.913  0.0000  0.0000  0.0000
16741TPSG    O118235   9.192   4.642   1.580  0.0000  0.0000  0.0000
16741TPSG    H618236   9.192   4.642   1.678  0.0000  0.0000  0.0000
16742TPSG   HA218237   4.717   7.566   1.552  0.0000  0.0000  0.0000
16742TPSG   CA218238   4.744   7.658   1.603  0.0000  0.0000  0.0000
16742TPSG   CA118239   4.769   7.777   1.533  0.0000  0.0000  0.0000
16742TPSG    Si18240   4.769   7.777   1.347  0.0000  0.0000  0.0000
16742TPSG   CA618241   4.810   7.891   1.605  0.0000  0.0000  0.0000
16742TPSG   HH618242   4.825   7.987   1.556  0.0000  0.0000  0.0000
16742TPSG   CA518243   4.833   7.884   1.744  0.0000  0.0000  0.0000
16742TPSG   HA518244   4.865   7.971   1.799  0.0000  0.0000  0.0000
16742TPSG   CA418245   4.810   7.763   1.812  0.0000  0.0000  0.0000
16742TPSG   HA418246   4.829   7.757   1.919  0.0000  0.0000  0.0000
16742TPSG   CA318247   4.763   7.651   1.742  0.0000  0.0000  0.0000
16742TPSG   HA318248   4.746   7.558   1.796  0.0000  0.0000  0.0000
16742TPSG    O118249   4.885   7.777   1.463  0.0000  0.0000  0.0000
16742TPSG    H618250   4.885   7.777   1.561  0.0000  0.0000  0.0000
16743TPSG   HA218251   6.269   5.483   8.029  0.0000  0.0000  0.0000
16743TPSG   CA218252   6.296   5.391   7.978  0.0000  0.0000  0.0000
16743TPSG   CA118253   6.321   5.272   8.048  0.0000  0.0000  0.0000
16743TPSG    Si18254   6.321   5.272   8.234  0.0000  0.0000  0.0000
16743TPSG   CA618255   6.362   5.158   7.976  0.0000  0.0000  0.0000
16743TPSG   HH618256   6.377   5.062   8.025  0.0000  0.0000  0.0000
16743TPSG   CA518257   6.385   5.165   7.837  0.0000  0.0000  0.0000
16743TPSG   HA518258   6.417   5.078   7.782  0.0000  0.0000  0.0000
16743TPSG   CA418259   6.362   5.286   7.769  0.0000  0.0000  0.0000
16743TPSG   HA418260   6.381   5.292   7.662  0.0000  0.0000  0.0000
16743TPSG   CA318261   6.315   5.398   7.839  0.0000  0.0000  0.0000
16743TPSG   HA318262   6.298   5.491   7.785  0.0000  0.0000  0.0000
16743TPSG    O118263   6.437   5.272   8.118  0.0000  0.0000  0.0000
16743TPSG    H618264   6.437   5.272   8.020  0.0000  0.0000  0.0000
16744TPSG   HA218265   5.975   4.058   8.024  0.0000  0.0000  0.0000
16744TPSG   CA218266   6.002   3.966   7.973  0.0000  0.0000  0.0000
16744TPSG   CA118267   6.027   3.847   8.043  0.0000  0.0000  0.0000
16744TPSG    Si18268   6.027   3.847   8.229  0.0000  0.0000  0.0000
16744TPSG   CA618269   6.068   3.733   7.971  0.0000  0.0000  0.0000
16744TPSG   HH618270   6.083   3.637   8.020  0.0000  0.0000  0.0000
16744TPSG   CA518271   6.091   3.740   7.832  0.0000  0.0000  0.0000
16744TPSG   HA518272   6.123   3.653   7.777  0.0000  0.0000  0.0000
16744TPSG   CA418273   6.068   3.861   7.764  0.0000  0.0000  0.0000
16744TPSG   HA418274   6.087   3.867   7.657  0.0000  0.0000  0.0000
16744TPSG   CA318275   6.021   3.973   7.834  0.0000  0.0000  0.0000
16744TPSG   HA318276   6.004   4.066   7.780  0.0000  0.0000  0.0000
16744TPSG    O118277   6.143   3.847   8.113  0.0000  0.0000  0.0000
16744TPSG    H618278   6.143   3.847   8.015  0.0000  0.0000  0.0000
16745TPSG   HA218279   0.675   8.750   8.016  0.0000  0.0000  0.0000
16745TPSG   CA218280   0.702   8.658   7.965  0.0000  0.0000  0.0000
16745TPSG   CA118281   0.727   8.539   8.035  0.0000  0.0000  0.0000
16745TPSG    Si18282   0.727   8.539   8.221  0.0000  0.0000  0.0000
16745TPSG   CA618283   0.768   8.425   7.963  0.0000  0.0000  0.0000
16745TPSG   HH618284   0.783   8.329   8.012  0.0000  0.0000  0.0000
16745TPSG   CA518285   0.791   8.432   7.824  0.0000  0.0000  0.0000
16745TPSG   HA518286   0.823   8.345   7.769  0.0000  0.0000  0.0000
16745TPSG   CA418287   0.768   8.553   7.756  0.0000  0.0000  0.0000
16745TPSG   HA418288   0.787   8.559   7.649  0.0000  0.0000  0.0000
16745TPSG   CA318289   0.721   8.665   7.826  0.0000  0.0000  0.0000
16745TPSG   HA318290   0.704   8.758   7.772  0.0000  0.0000  0.0000
16745TPSG    O118291   0.843   8.539   8.105  0.0000  0.0000  0.0000
16745TPSG    H618292   0.843   8.539   8.007  0.0000  0.0000  0.0000
16746TPSG   HA218293   3.189   5.045   8.058  0.0000  0.0000  0.0000
16746TPSG   CA218294   3.216   4.953   8.007  0.0000  0.0000  0.0000
16746TPSG   CA118295   3.241   4.834   8.077  0.0000  0.0000  0.0000
16746TPSG    Si18296   3.241   4.834   8.263  0.0000  0.0000  0.0000
16746TPSG   CA618297   3.282   4.720   8.005  0.0000  0.0000  0.0000
16746TPSG   HH618298   3.297   4.624   8.054  0.0000  0.0000  0.0000
16746TPSG   CA518299   3.305   4.727   7.866  0.0000  0.0000  0.0000
16746TPSG   HA518300   3.337   4.640   7.811  0.0000  0.0000  0.0000
16746TPSG   CA418301   3.282   4.848   7.798  0.0000  0.0000  0.0000
16746TPSG   HA418302   3.301   4.854   7.691  0.0000  0.0000  0.0000
16746TPSG   CA318303   3.235   4.960   7.868  0.0000  0.0000  0.0000
16746TPSG   HA318304   3.218   5.053   7.814  0.0000  0.0000  0.0000
16746TPSG    O118305   3.357   4.834   8.147  0.0000  0.0000  0.0000
16746TPSG    H618306   3.357   4.834   8.049  0.0000  0.0000  0.0000
16747TPSG   HA218307   3.802   6.467   8.098  0.0000  0.0000  0.0000
16747TPSG   CA218308   3.829   6.375   8.047  0.0000  0.0000  0.0000
16747TPSG   CA118309   3.854   6.256   8.117  0.0000  0.0000  0.0000
16747TPSG    Si18310   3.854   6.256   8.303  0.0000  0.0000  0.0000
16747TPSG   CA618311   3.895   6.142   8.045  0.0000  0.0000  0.0000
16747TPSG   HH618312   3.910   6.046   8.094  0.0000  0.0000  0.0000
16747TPSG   CA518313   3.918   6.149   7.906  0.0000  0.0000  0.0000
16747TPSG   HA518314   3.950   6.062   7.851  0.0000  0.0000  0.0000
16747TPSG   CA418315   3.895   6.270   7.838  0.0000  0.0000  0.0000
16747TPSG   HA418316   3.914   6.276   7.731  0.0000  0.0000  0.0000
16747TPSG   CA318317   3.848   6.382   7.908  0.0000  0.0000  0.0000
16747TPSG   HA318318   3.831   6.475   7.854  0.0000  0.0000  0.0000
16747TPSG    O118319   3.970   6.256   8.187  0.0000  0.0000  0.0000
16747TPSG    H618320   3.970   6.256   8.089  0.0000  0.0000  0.0000
16748TPSG   HA218321   5.347   2.320   1.598  0.0000  0.0000  0.0000
16748TPSG   CA218322   5.374   2.412   1.649  0.0000  0.0000  0.0000
16748TPSG   CA118323   5.399   2.531   1.579  0.0000  0.0000  0.0000
16748TPSG    Si18324   5.399   2.531   1.393  0.0000  0.0000  0.0000
16748TPSG   CA618325   5.440   2.645   1.651  0.0000  0.0000  0.0000
16748TPSG   HH618326   5.455   2.741   1.602  0.0000  0.0000  0.0000
16748TPSG   CA518327   5.463   2.638   1.790  0.0000  0.0000  0.0000
16748TPSG   HA518328   5.495   2.725   1.845  0.0000  0.0000  0.0000
16748TPSG   CA418329   5.440   2.517   1.858  0.0000  0.0000  0.0000
16748TPSG   HA418330   5.459   2.511   1.965  0.0000  0.0000  0.0000
16748TPSG   CA318331   5.393   2.405   1.788  0.0000  0.0000  0.0000
16748TPSG   HA318332   5.376   2.312   1.842  0.0000  0.0000  0.0000
16748TPSG    O118333   5.515   2.531   1.509  0.0000  0.0000  0.0000
16748TPSG    H618334   5.515   2.531   1.607  0.0000  0.0000  0.0000
16749TPSG   HA218335   3.718   3.961   1.536  0.0000  0.0000  0.0000
16749TPSG   CA218336   3.652   4.029   1.587  0.0000  0.0000  0.0000
16749TPSG   CA118337   3.561   4.111   1.517  0.0000  0.0000  0.0000
16749TPSG    Si18338   3.561   4.111   1.331  0.0000  0.0000  0.0000
16749TPSG   CA618339   3.483   4.204   1.589  0.0000  0.0000  0.0000
16749TPSG   HH618340   3.408   4.265   1.540  0.0000  0.0000  0.0000
16749TPSG   CA518341   3.500   4.219   1.728  0.0000  0.0000  0.0000
16749TPSG   HA518342   3.441   4.291   1.783  0.0000  0.0000  0.0000
16749TPSG   CA418343   3.593   4.140   1.796  0.0000  0.0000  0.0000
16749TPSG   HA418344   3.608   4.153   1.903  0.0000  0.0000  0.0000
16749TPSG   CA318345   3.667   4.043   1.726  0.0000  0.0000  0.0000
16749TPSG   HA318346   3.739   3.981   1.780  0.0000  0.0000  0.0000
16749TPSG    O118347   3.619   4.211   1.447  0.0000  0.0000  0.0000
16749TPSG    H618348   3.619   4.211   1.545  0.0000  0.0000  0.0000
16750TPSG   HA218349   1.071   2.458   1.614  0.0000  0.0000  0.0000
16750TPSG   CA218350   1.098   2.550   1.665  0.0000  0.0000  0.0000
16750TPSG   CA118351   1.123   2.669   1.595  0.0000  0.0000  0.0000
16750TPSG    Si18352   1.123   2.669   1.409  0.0000  0.0000  0.0000
16750TPSG   CA618353   1.164   2.783   1.667  0.0000  0.0000  0.0000
16750TPSG   HH618354   1.179   2.879   1.618  0.0000  0.0000  0.0000
16750TPSG   CA518355   1.187   2.776   1.806  0.0000  0.0000  0.0000
16750TPSG   HA518356   1.219   2.863   1.861  0.0000  0.0000  0.0000
16750TPSG   CA418357   1.164   2.655   1.874  0.0000  0.0000  0.0000
16750TPSG   HA418358   1.183   2.649   1.981  0.0000  0.0000  0.0000
16750TPSG   CA318359   1.117   2.543   1.804  0.0000  0.0000  0.0000
16750TPSG   HA318360   1.100   2.450   1.858  0.0000  0.0000  0.0000
16750TPSG    O118361   1.239   2.669   1.525  0.0000  0.0000  0.0000
16750TPSG    H618362   1.239   2.669   1.623  0.0000  0.0000  0.0000
16751TPSG   HA218363   5.679   6.621   1.659  0.0000  0.0000  0.0000
16751TPSG   CA218364   5.706   6.713   1.710  0.0000  0.0000  0.0000
16751TPSG   CA118365   5.731   6.832   1.640  0.0000  0.0000  0.0000
16751TPSG    Si18366   5.731   6.832   1.454  0.0000  0.0000  0.0000
16751TPSG   CA618367   5.772   6.946   1.712  0.0000  0.0000  0.0000
16751TPSG   HH618368   5.787   7.042   1.663  0.0000  0.0000  0.0000
16751TPSG   CA518369   5.795   6.939   1.851  0.0000  0.0000  0.0000
16751TPSG   HA518370   5.827   7.026   1.906  0.0000  0.0000  0.0000
16751TPSG   CA418371   5.772   6.818   1.919  0.0000  0.0000  0.0000
16751TPSG   HA418372   5.791   6.812   2.026  0.0000  0.0000  0.0000
16751TPSG   CA318373   5.725   6.706   1.849  0.0000  0.0000  0.0000
16751TPSG   HA318374   5.708   6.613   1.903  0.0000  0.0000  0.0000
16751TPSG    O118375   5.847   6.832   1.570  0.0000  0.0000  0.0000
16751TPSG    H618376   5.847   6.832   1.668  0.0000  0.0000  0.0000
16752TPSG   HA218377   2.301   8.799   7.996  0.0000  0.0000  0.0000
16752TPSG   CA218378   2.328   8.707   7.945  0.0000  0.0000  0.0000
16752TPSG   CA118379   2.353   8.588   8.015  0.0000  0.0000  0.0000
16752TPSG    Si18380   2.353   8.588   8.201  0.0000  0.0000  0.0000
16752TPSG   CA618381   2.394   8.474   7.943  0.0000  0.0000  0.0000
16752TPSG   HH618382   2.409   8.378   7.992  0.0000  0.0000  0.0000
16752TPSG   CA518383   2.417   8.481   7.804  0.0000  0.0000  0.0000
16752TPSG   HA518384   2.449   8.394   7.749  0.0000  0.0000  0.0000
16752TPSG   CA418385   2.394   8.602   7.736  0.0000  0.0000  0.0000
16752TPSG   HA418386   2.413   8.608   7.629  0.0000  0.0000  0.0000
16752TPSG   CA318387   2.347   8.714   7.806  0.0000  0.0000  0.0000
16752TPSG   HA318388   2.330   8.807   7.752  0.0000  0.0000  0.0000
16752TPSG    O118389   2.469   8.588   8.085  0.0000  0.0000  0.0000
16752TPSG    H618390   2.469   8.588   7.987  0.0000  0.0000  0.0000
16753TPS    HA218391   7.292   5.422   1.470  0.0000  0.0000  0.0000
16753TPS    CA218392   7.319   5.514   1.521  0.0000  0.0000  0.0000
16753TPS    CA118393   7.344   5.633   1.451  0.0000  0.0000  0.0000
16753TPS     Si18394   7.344   5.633   1.265  0.0000  0.0000  0.0000
16753TPS    CA618395   7.385   5.747   1.523  0.0000  0.0000  0.0000
16753TPS    HH618396   7.400   5.843   1.474  0.0000  0.0000  0.0000
16753TPS    CA518397   7.408   5.740   1.662  0.0000  0.0000  0.0000
16753TPS    HA518398   7.440   5.827   1.717  0.0000  0.0000  0.0000
16753TPS    CA418399   7.385   5.619   1.730  0.0000  0.0000  0.0000
16753TPS    HA418400   7.404   5.613   1.837  0.0000  0.0000  0.0000
16753TPS    CA318401   7.338   5.507   1.660  0.0000  0.0000  0.0000
16753TPS    HA318402   7.321   5.414   1.714  0.0000  0.0000  0.0000
16754TPS    HA218403   5.309   8.248   8.114  0.0000  0.0000  0.0000
16754TPS    CA218404   5.336   8.156   8.063  0.0000  0.0000  0.0000
16754TPS    CA118405   5.361   8.037   8.133  0.0000  0.0000  0.0000
16754TPS     Si18406   5.361   8.037   8.319  0.0000  0.0000  0.0000
16754TPS    CA618407   5.402   7.923   8.061  0.0000  0.0000  0.0000
16754TPS    HH618408   5.417   7.827   8.110  0.0000  0.0000  0.0000
16754TPS    CA518409   5.425   7.930   7.922  0.0000  0.0000  0.0000
16754TPS    HA518410   5.457   7.843   7.867  0.0000  0.0000  0.0000
16754TPS    CA418411   5.402   8.051   7.854  0.0000  0.0000  0.0000
16754TPS    HA418412   5.421   8.057   7.747  0.0000  0.0000  0.0000
16754TPS    CA318413   5.355   8.163   7.924  0.0000  0.0000  0.0000
16754TPS    HA318414   5.338   8.256   7.870  0.0000  0.0000  0.0000
16755TPS    HA218415   5.845   8.307   1.577  0.0000  0.0000  0.0000
16755TPS    CA218416   5.872   8.399   1.628  0.0000  0.0000  0.0000
16755TPS    CA118417   5.897   8.518   1.558  0.0000  0.0000  0.0000
16755TPS     Si18418   5.897   8.518   1.372  0.0000  0.0000  0.0000
16755TPS    CA618419   5.938   8.632   1.630  0.0000  0.0000  0.0000
16755TPS    HH618420   5.953   8.728   1.581  0.0000  0.0000  0.0000
16755TPS    CA518421   5.961   8.625   1.769  0.0000  0.0000  0.0000
16755TPS    HA518422   5.993   8.712   1.824  0.0000  0.0000  0.0000
16755TPS    CA418423   5.938   8.504   1.837  0.0000  0.0000  0.0000
16755TPS    HA418424   5.957   8.498   1.944  0.0000  0.0000  0.0000
16755TPS    CA318425   5.891   8.392   1.767  0.0000  0.0000  0.0000
16755TPS    HA318426   5.874   8.299   1.821  0.0000  0.0000  0.0000
16756TPS    HA218427   4.195   6.196   1.503  0.0000  0.0000  0.0000
16756TPS    CA218428   4.222   6.288   1.554  0.0000  0.0000  0.0000
16756TPS    CA118429   4.247   6.407   1.484  0.0000  0.0000  0.0000
16756TPS     Si18430   4.247   6.407   1.298  0.0000  0.0000  0.0000
16756TPS    CA618431   4.288   6.521   1.556  0.0000  0.0000  0.0000
16756TPS    HH618432   4.303   6.617   1.507  0.0000  0.0000  0.0000
16756TPS    CA518433   4.311   6.514   1.695  0.0000  0.0000  0.0000
16756TPS    HA518434   4.343   6.601   1.750  0.0000  0.0000  0.0000
16756TPS    CA418435   4.288   6.393   1.763  0.0000  0.0000  0.0000
16756TPS    HA418436   4.307   6.387   1.870  0.0000  0.0000  0.0000
16756TPS    CA318437   4.241   6.281   1.693  0.0000  0.0000  0.0000
16756TPS    HA318438   4.224   6.188   1.747  0.0000  0.0000  0.0000
16757TPS    HA218439   9.034   4.284   8.225  0.0000  0.0000  0.0000
16757TPS    CA218440   9.061   4.192   8.174  0.0000  0.0000  0.0000
16757TPS    CA118441   9.086   4.073   8.244  0.0000  0.0000  0.0000
16757TPS     Si18442   9.086   4.073   8.430  0.0000  0.0000  0.0000
16757TPS    CA618443   9.127   3.959   8.172  0.0000  0.0000  0.0000
16757TPS    HH618444   9.142   3.863   8.221  0.0000  0.0000  0.0000
16757TPS    CA518445   9.150   3.966   8.033  0.0000  0.0000  0.0000
16757TPS    HA518446   9.182   3.879   7.978  0.0000  0.0000  0.0000
16757TPS    CA418447   9.127   4.087   7.965  0.0000  0.0000  0.0000
16757TPS    HA418448   9.146   4.093   7.858  0.0000  0.0000  0.0000
16757TPS    CA318449   9.080   4.199   8.035  0.0000  0.0000  0.0000
16757TPS    HA318450   9.063   4.292   7.981  0.0000  0.0000  0.0000
16758TPS    HA218451   4.625   7.976   1.612  0.0000  0.0000  0.0000
16758TPS    CA218452   4.652   8.068   1.663  0.0000  0.0000  0.0000
16758TPS    CA118453   4.677   8.187   1.593  0.0000  0.0000  0.0000
16758TPS     Si18454   4.677   8.187   1.407  0.0000  0.0000  0.0000
16758TPS    CA618455   4.718   8.301   1.665  0.0000  0.0000  0.0000
16758TPS    HH618456   4.733   8.397   1.616  0.0000  0.0000  0.0000
16758TPS    CA518457   4.741   8.294   1.804  0.0000  0.0000  0.0000
16758TPS    HA518458   4.773   8.381   1.859  0.0000  0.0000  0.0000
16758TPS    CA418459   4.718   8.173   1.872  0.0000  0.0000  0.0000
16758TPS    HA418460   4.737   8.167   1.979  0.0000  0.0000  0.0000
16758TPS    CA318461   4.671   8.061   1.802  0.0000  0.0000  0.0000
16758TPS    HA318462   4.654   7.968   1.856  0.0000  0.0000  0.0000
16759TPS    HA218463   7.042   2.474   1.509  0.0000  0.0000  0.0000
16759TPS    CA218464   7.069   2.566   1.560  0.0000  0.0000  0.0000
16759TPS    CA118465   7.094   2.685   1.490  0.0000  0.0000  0.0000
16759TPS     Si18466   7.094   2.685   1.304  0.0000  0.0000  0.0000
16759TPS    CA618467   7.135   2.799   1.562  0.0000  0.0000  0.0000
16759TPS    HH618468   7.150   2.895   1.513  0.0000  0.0000  0.0000
16759TPS    CA518469   7.158   2.792   1.701  0.0000  0.0000  0.0000
16759TPS    HA518470   7.190   2.879   1.756  0.0000  0.0000  0.0000
16759TPS    CA418471   7.135   2.671   1.769  0.0000  0.0000  0.0000
16759TPS    HA418472   7.154   2.665   1.876  0.0000  0.0000  0.0000
16759TPS    CA318473   7.088   2.559   1.699  0.0000  0.0000  0.0000
16759TPS    HA318474   7.071   2.466   1.753  0.0000  0.0000  0.0000
16760TPS    HA218475   4.931   3.022   8.157  0.0000  0.0000  0.0000
16760TPS    CA218476   4.958   2.930   8.106  0.0000  0.0000  0.0000
16760TPS    CA118477   4.983   2.811   8.176  0.0000  0.0000  0.0000
16760TPS     Si18478   4.983   2.811   8.362  0.0000  0.0000  0.0000
16760TPS    CA618479   5.024   2.697   8.104  0.0000  0.0000  0.0000
16760TPS    HH618480   5.039   2.601   8.153  0.0000  0.0000  0.0000
16760TPS    CA518481   5.047   2.704   7.965  0.0000  0.0000  0.0000
16760TPS    HA518482   5.079   2.617   7.910  0.0000  0.0000  0.0000
16760TPS    CA418483   5.024   2.825   7.897  0.0000  0.0000  0.0000
16760TPS    HA418484   5.043   2.831   7.790  0.0000  0.0000  0.0000
16760TPS    CA318485   4.977   2.937   7.967  0.0000  0.0000  0.0000
16760TPS    HA318486   4.960   3.030   7.913  0.0000  0.0000  0.0000
16761TPS    HA218487   7.253   5.636   8.047  0.0000  0.0000  0.0000
16761TPS    CA218488   7.280   5.544   7.996  0.0000  0.0000  0.0000
16761TPS    CA118489   7.305   5.425   8.066  0.0000  0.0000  0.0000
16761TPS     Si18490   7.305   5.425   8.252  0.0000  0.0000  0.0000
16761TPS    CA618491   7.346   5.311   7.994  0.0000  0.0000  0.0000
16761TPS    HH618492   7.361   5.215   8.043  0.0000  0.0000  0.0000
16761TPS    CA518493   7.369   5.318   7.855  0.0000  0.0000  0.0000
16761TPS    HA518494   7.401   5.231   7.800  0.0000  0.0000  0.0000
16761TPS    CA418495   7.346   5.439   7.787  0.0000  0.0000  0.0000
16761TPS    HA418496   7.365   5.445   7.680  0.0000  0.0000  0.0000
16761TPS    CA318497   7.299   5.551   7.857  0.0000  0.0000  0.0000
16761TPS    HA318498   7.282   5.644   7.803  0.0000  0.0000  0.0000
16762TPS    HA218499   2.505   3.373   8.176  0.0000  0.0000  0.0000
16762TPS    CA218500   2.532   3.281   8.125  0.0000  0.0000  0.0000
16762TPS    CA118501   2.557   3.162   8.195  0.0000  0.0000  0.0000
16762TPS     Si18502   2.557   3.162   8.381  0.0000  0.0000  0.0000
16762TPS    CA618503   2.598   3.048   8.123  0.0000  0.0000  0.0000
16762TPS    HH618504   2.613   2.952   8.172  0.0000  0.0000  0.0000
16762TPS    CA518505   2.621   3.055   7.984  0.0000  0.0000  0.0000
16762TPS    HA518506   2.653   2.968   7.929  0.0000  0.0000  0.0000
16762TPS    CA418507   2.598   3.176   7.916  0.0000  0.0000  0.0000
16762TPS    HA418508   2.617   3.182   7.809  0.0000  0.0000  0.0000
16762TPS    CA318509   2.551   3.288   7.986  0.0000  0.0000  0.0000
16762TPS    HA318510   2.534   3.381   7.932  0.0000  0.0000  0.0000
16763TPS    HA218511   6.161   4.115   1.538  0.0000  0.0000  0.0000
16763TPS    CA218512   6.188   4.207   1.589  0.0000  0.0000  0.0000
16763TPS    CA118513   6.213   4.326   1.519  0.0000  0.0000  0.0000
16763TPS     Si18514   6.213   4.326   1.333  0.0000  0.0000  0.0000
16763TPS    CA618515   6.254   4.440   1.591  0.0000  0.0000  0.0000
16763TPS    HH618516   6.269   4.536   1.542  0.0000  0.0000  0.0000
16763TPS    CA518517   6.277   4.433   1.730  0.0000  0.0000  0.0000
16763TPS    HA518518   6.309   4.520   1.785  0.0000  0.0000  0.0000
16763TPS    CA418519   6.254   4.312   1.798  0.0000  0.0000  0.0000
16763TPS    HA418520   6.273   4.306   1.905  0.0000  0.0000  0.0000
16763TPS    CA318521   6.207   4.200   1.728  0.0000  0.0000  0.0000
16763TPS    HA318522   6.190   4.107   1.782  0.0000  0.0000  0.0000
16764TPS    HA218523   7.695   3.838   8.096  0.0000  0.0000  0.0000
16764TPS    CA218524   7.722   3.746   8.045  0.0000  0.0000  0.0000
16764TPS    CA118525   7.747   3.627   8.115  0.0000  0.0000  0.0000
16764TPS     Si18526   7.747   3.627   8.301  0.0000  0.0000  0.0000
16764TPS    CA618527   7.788   3.513   8.043  0.0000  0.0000  0.0000
16764TPS    HH618528   7.803   3.417   8.092  0.0000  0.0000  0.0000
16764TPS    CA518529   7.811   3.520   7.904  0.0000  0.0000  0.0000
16764TPS    HA518530   7.843   3.433   7.849  0.0000  0.0000  0.0000
16764TPS    CA418531   7.788   3.641   7.836  0.0000  0.0000  0.0000
16764TPS    HA418532   7.807   3.647   7.729  0.0000  0.0000  0.0000
16764TPS    CA318533   7.741   3.753   7.906  0.0000  0.0000  0.0000
16764TPS    HA318534   7.724   3.846   7.852  0.0000  0.0000  0.0000
16765TPS    HA218535   2.555   9.405   1.464  0.0000  0.0000  0.0000
16765TPS    CA218536   2.648   9.428   1.515  0.0000  0.0000  0.0000
16765TPS    CA118537   2.764   9.466   1.445  0.0000  0.0000  0.0000
16765TPS     Si18538   2.764   9.466   1.259  0.0000  0.0000  0.0000
16765TPS    CA618539   2.883   9.488   1.517  0.0000  0.0000  0.0000
16765TPS    HH618540   2.974   9.522   1.468  0.0000  0.0000  0.0000
16765TPS    CA518541   2.888   9.464   1.656  0.0000  0.0000  0.0000
16765TPS    HA518542   2.980   9.480   1.711  0.0000  0.0000  0.0000
16765TPS    CA418543   2.773   9.424   1.724  0.0000  0.0000  0.0000
16765TPS    HA418544   2.777   9.404   1.831  0.0000  0.0000  0.0000
16765TPS    CA318545   2.652   9.408   1.654  0.0000  0.0000  0.0000
16765TPS    HA318546   2.563   9.377   1.708  0.0000  0.0000  0.0000
16766TPS    HA218547   0.187   1.615   8.079  0.0000  0.0000  0.0000
16766TPS    CA218548   0.214   1.523   8.028  0.0000  0.0000  0.0000
16766TPS    CA118549   0.239   1.404   8.098  0.0000  0.0000  0.0000
16766TPS     Si18550   0.239   1.404   8.284  0.0000  0.0000  0.0000
16766TPS    CA618551   0.280   1.290   8.026  0.0000  0.0000  0.0000
16766TPS    HH618552   0.295   1.194   8.075  0.0000  0.0000  0.0000
16766TPS    CA518553   0.303   1.297   7.887  0.0000  0.0000  0.0000
16766TPS    HA518554   0.335   1.210   7.832  0.0000  0.0000  0.0000
16766TPS    CA418555   0.280   1.418   7.819  0.0000  0.0000  0.0000
16766TPS    HA418556   0.299   1.424   7.712  0.0000  0.0000  0.0000
16766TPS    CA318557   0.233   1.530   7.889  0.0000  0.0000  0.0000
16766TPS    HA318558   0.216   1.623   7.835  0.0000  0.0000  0.0000
16767TPS    HA218559   3.168   4.252   1.497  0.0000  0.0000  0.0000
16767TPS    CA218560   3.195   4.344   1.548  0.0000  0.0000  0.0000
16767TPS    CA118561   3.220   4.463   1.478  0.0000  0.0000  0.0000
16767TPS     Si18562   3.220   4.463   1.292  0.0000  0.0000  0.0000
16767TPS    CA618563   3.261   4.577   1.550  0.0000  0.0000  0.0000
16767TPS    HH618564   3.276   4.673   1.501  0.0000  0.0000  0.0000
16767TPS    CA518565   3.284   4.570   1.689  0.0000  0.0000  0.0000
16767TPS    HA518566   3.316   4.657   1.744  0.0000  0.0000  0.0000
16767TPS    CA418567   3.261   4.449   1.757  0.0000  0.0000  0.0000
16767TPS    HA418568   3.280   4.443   1.864  0.0000  0.0000  0.0000
16767TPS    CA318569   3.214   4.337   1.687  0.0000  0.0000  0.0000
16767TPS    HA318570   3.197   4.244   1.741  0.0000  0.0000  0.0000
16768TPS    HA218571   6.482   5.372   1.561  0.0000  0.0000  0.0000
16768TPS    CA218572   6.509   5.464   1.612  0.0000  0.0000  0.0000
16768TPS    CA118573   6.534   5.583   1.542  0.0000  0.0000  0.0000
16768TPS     Si18574   6.534   5.583   1.356  0.0000  0.0000  0.0000
16768TPS    CA618575   6.575   5.697   1.614  0.0000  0.0000  0.0000
16768TPS    HH618576   6.590   5.793   1.565  0.0000  0.0000  0.0000
16768TPS    CA518577   6.598   5.690   1.753  0.0000  0.0000  0.0000
16768TPS    HA518578   6.630   5.777   1.808  0.0000  0.0000  0.0000
16768TPS    CA418579   6.575   5.569   1.821  0.0000  0.0000  0.0000
16768TPS    HA418580   6.594   5.563   1.928  0.0000  0.0000  0.0000
16768TPS    CA318581   6.528   5.457   1.751  0.0000  0.0000  0.0000
16768TPS    HA318582   6.511   5.364   1.805  0.0000  0.0000  0.0000
16769TPS    HA218583   4.400   2.557   1.414  0.0000  0.0000  0.0000
16769TPS    CA218584   4.427   2.649   1.465  0.0000  0.0000  0.0000
16769TPS    CA118585   4.452   2.768   1.395  0.0000  0.0000  0.0000
16769TPS     Si18586   4.452   2.768   1.209  0.0000  0.0000  0.0000
16769TPS    CA618587   4.493   2.882   1.467  0.0000  0.0000  0.0000
16769TPS    HH618588   4.508   2.978   1.418  0.0000  0.0000  0.0000
16769TPS    CA518589   4.516   2.875   1.606  0.0000  0.0000  0.0000
16769TPS    HA518590   4.548   2.962   1.661  0.0000  0.0000  0.0000
16769TPS    CA418591   4.493   2.754   1.674  0.0000  0.0000  0.0000
16769TPS    HA418592   4.512   2.748   1.781  0.0000  0.0000  0.0000
16769TPS    CA318593   4.446   2.642   1.604  0.0000  0.0000  0.0000
16769TPS    HA318594   4.429   2.549   1.658  0.0000  0.0000  0.0000
16770TPS    HA218595   1.119   8.520   1.443  0.0000  0.0000  0.0000
16770TPS    CA218596   1.146   8.612   1.494  0.0000  0.0000  0.0000
16770TPS    CA118597   1.171   8.731   1.424  0.0000  0.0000  0.0000
16770TPS     Si18598   1.171   8.731   1.238  0.0000  0.0000  0.0000
16770TPS    CA618599   1.212   8.845   1.496  0.0000  0.0000  0.0000
16770TPS    HH618600   1.227   8.941   1.447  0.0000  0.0000  0.0000
16770TPS    CA518601   1.235   8.838   1.635  0.0000  0.0000  0.0000
16770TPS    HA518602   1.267   8.925   1.690  0.0000  0.0000  0.0000
16770TPS    CA418603   1.212   8.717   1.703  0.0000  0.0000  0.0000
16770TPS    HA418604   1.231   8.711   1.810  0.0000  0.0000  0.0000
16770TPS    CA318605   1.165   8.605   1.633  0.0000  0.0000  0.0000
16770TPS    HA318606   1.148   8.512   1.687  0.0000  0.0000  0.0000
16771TPS    HA218607   1.816   0.988   1.576  0.0000  0.0000  0.0000
16771TPS    CA218608   1.843   1.080   1.627  0.0000  0.0000  0.0000
16771TPS    CA118609   1.868   1.199   1.557  0.0000  0.0000  0.0000
16771TPS     Si18610   1.868   1.199   1.371  0.0000  0.0000  0.0000
16771TPS    CA618611   1.909   1.313   1.629  0.0000  0.0000  0.0000
16771TPS    HH618612   1.924   1.409   1.580  0.0000  0.0000  0.0000
16771TPS    CA518613   1.932   1.306   1.768  0.0000  0.0000  0.0000
16771TPS    HA518614   1.964   1.393   1.823  0.0000  0.0000  0.0000
16771TPS    CA418615   1.909   1.185   1.836  0.0000  0.0000  0.0000
16771TPS    HA418616   1.928   1.179   1.943  0.0000  0.0000  0.0000
16771TPS    CA318617   1.862   1.073   1.766  0.0000  0.0000  0.0000
16771TPS    HA318618   1.845   0.980   1.820  0.0000  0.0000  0.0000
16772TPS    HA218619   1.128   1.246   1.614  0.0000  0.0000  0.0000
16772TPS    CA218620   1.155   1.338   1.665  0.0000  0.0000  0.0000
16772TPS    CA118621   1.180   1.457   1.595  0.0000  0.0000  0.0000
16772TPS     Si18622   1.180   1.457   1.409  0.0000  0.0000  0.0000
16772TPS    CA618623   1.221   1.571   1.667  0.0000  0.0000  0.0000
16772TPS    HH618624   1.236   1.667   1.618  0.0000  0.0000  0.0000
16772TPS    CA518625   1.244   1.564   1.806  0.0000  0.0000  0.0000
16772TPS    HA518626   1.276   1.651   1.861  0.0000  0.0000  0.0000
16772TPS    CA418627   1.221   1.443   1.874  0.0000  0.0000  0.0000
16772TPS    HA418628   1.240   1.437   1.981  0.0000  0.0000  0.0000
16772TPS    CA318629   1.174   1.331   1.804  0.0000  0.0000  0.0000
16772TPS    HA318630   1.157   1.238   1.858  0.0000  0.0000  0.0000
16773TPS    HA218631   9.231   8.710   8.131  0.0000  0.0000  0.0000
16773TPS    CA218632   9.258   8.618   8.080  0.0000  0.0000  0.0000
16773TPS    CA118633   9.283   8.499   8.150  0.0000  0.0000  0.0000
16773TPS     Si18634   9.283   8.499   8.336  0.0000  0.0000  0.0000
16773TPS    CA618635   9.324   8.385   8.078  0.0000  0.0000  0.0000
16773TPS    HH618636   9.339   8.289   8.127  0.0000  0.0000  0.0000
16773TPS    CA518637   9.347   8.392   7.939  0.0000  0.0000  0.0000
16773TPS    HA518638   9.379   8.305   7.884  0.0000  0.0000  0.0000
16773TPS    CA418639   9.324   8.513   7.871  0.0000  0.0000  0.0000
16773TPS    HA418640   9.343   8.519   7.764  0.0000  0.0000  0.0000
16773TPS    CA318641   9.277   8.625   7.941  0.0000  0.0000  0.0000
16773TPS    HA318642   9.260   8.718   7.887  0.0000  0.0000  0.0000
16774TPS    HA218643   0.465   4.783   1.491  0.0000  0.0000  0.0000
16774TPS    CA218644   0.372   4.760   1.542  0.0000  0.0000  0.0000
16774TPS    CA118645   0.256   4.722   1.472  0.0000  0.0000  0.0000
16774TPS     Si18646   0.256   4.722   1.286  0.0000  0.0000  0.0000
16774TPS    CA618647   0.137   4.700   1.544  0.0000  0.0000  0.0000
16774TPS    HH618648   0.046   4.666   1.495  0.0000  0.0000  0.0000
16774TPS    CA518649   0.132   4.724   1.683  0.0000  0.0000  0.0000
16774TPS    HA518650   0.040   4.708   1.738  0.0000  0.0000  0.0000
16774TPS    CA418651   0.247   4.764   1.751  0.0000  0.0000  0.0000
16774TPS    HA418652   0.243   4.784   1.858  0.0000  0.0000  0.0000
16774TPS    CA318653   0.368   4.780   1.681  0.0000  0.0000  0.0000
16774TPS    HA318654   0.457   4.811   1.735  0.0000  0.0000  0.0000
16775TPS    HA218655   9.458   6.898   8.021  0.0000  0.0000  0.0000
16775TPS    CA218656   9.485   6.806   7.970  0.0000  0.0000  0.0000
16775TPS    CA118657   9.510   6.687   8.040  0.0000  0.0000  0.0000
16775TPS     Si18658   9.510   6.687   8.226  0.0000  0.0000  0.0000
16775TPS    CA618659   9.551   6.573   7.968  0.0000  0.0000  0.0000
16775TPS    HH618660   9.566   6.477   8.017  0.0000  0.0000  0.0000
16775TPS    CA518661   9.574   6.580   7.829  0.0000  0.0000  0.0000
16775TPS    HA518662   9.606   6.493   7.774  0.0000  0.0000  0.0000
16775TPS    CA418663   9.551   6.701   7.761  0.0000  0.0000  0.0000
16775TPS    HA418664   9.570   6.707   7.654  0.0000  0.0000  0.0000
16775TPS    CA318665   9.504   6.813   7.831  0.0000  0.0000  0.0000
16775TPS    HA318666   9.487   6.906   7.777  0.0000  0.0000  0.0000
16776TPS    HA218667   7.532   7.625   1.613  0.0000  0.0000  0.0000
16776TPS    CA218668   7.559   7.717   1.664  0.0000  0.0000  0.0000
16776TPS    CA118669   7.584   7.836   1.594  0.0000  0.0000  0.0000
16776TPS     Si18670   7.584   7.836   1.408  0.0000  0.0000  0.0000
16776TPS    CA618671   7.625   7.950   1.666  0.0000  0.0000  0.0000
16776TPS    HH618672   7.640   8.046   1.617  0.0000  0.0000  0.0000
16776TPS    CA518673   7.648   7.943   1.805  0.0000  0.0000  0.0000
16776TPS    HA518674   7.680   8.030   1.860  0.0000  0.0000  0.0000
16776TPS    CA418675   7.625   7.822   1.873  0.0000  0.0000  0.0000
16776TPS    HA418676   7.644   7.816   1.980  0.0000  0.0000  0.0000
16776TPS    CA318677   7.578   7.710   1.803  0.0000  0.0000  0.0000
16776TPS    HA318678   7.561   7.617   1.857  0.0000  0.0000  0.0000
16777TPS    HA218679   8.517   0.151   1.415  0.0000  0.0000  0.0000
16777TPS    CA218680   8.544   0.243   1.466  0.0000  0.0000  0.0000
16777TPS    CA118681   8.569   0.362   1.396  0.0000  0.0000  0.0000
16777TPS     Si18682   8.569   0.362   1.210  0.0000  0.0000  0.0000
16777TPS    CA618683   8.610   0.476   1.468  0.0000  0.0000  0.0000
16777TPS    HH618684   8.625   0.572   1.419  0.0000  0.0000  0.0000
16777TPS    CA518685   8.633   0.469   1.607  0.0000  0.0000  0.0000
16777TPS    HA518686   8.665   0.556   1.662  0.0000  0.0000  0.0000
16777TPS    CA418687   8.610   0.348   1.675  0.0000  0.0000  0.0000
16777TPS    HA418688   8.629   0.342   1.782  0.0000  0.0000  0.0000
16777TPS    CA318689   8.563   0.236   1.605  0.0000  0.0000  0.0000
16777TPS    HA318690   8.546   0.143   1.659  0.0000  0.0000  0.0000
16778TPS    HA218691   6.156   0.118   1.349  0.0000  0.0000  0.0000
16778TPS    CA218692   6.183   0.210   1.400  0.0000  0.0000  0.0000
16778TPS    CA118693   6.208   0.329   1.330  0.0000  0.0000  0.0000
16778TPS     Si18694   6.208   0.329   1.144  0.0000  0.0000  0.0000
16778TPS    CA618695   6.249   0.443   1.402  0.0000  0.0000  0.0000
16778TPS    HH618696   6.264   0.539   1.353  0.0000  0.0000  0.0000
16778TPS    CA518697   6.272   0.436   1.541  0.0000  0.0000  0.0000
16778TPS    HA518698   6.304   0.523   1.596  0.0000  0.0000  0.0000
16778TPS    CA418699   6.249   0.315   1.609  0.0000  0.0000  0.0000
16778TPS    HA418700   6.268   0.309   1.716  0.0000  0.0000  0.0000
16778TPS    CA318701   6.202   0.203   1.539  0.0000  0.0000  0.0000
16778TPS    HA318702   6.185   0.110   1.593  0.0000  0.0000  0.0000
16779TPS    HA218703   4.446   6.051   1.454  0.0000  0.0000  0.0000
16779TPS    CA218704   4.473   6.143   1.505  0.0000  0.0000  0.0000
16779TPS    CA118705   4.498   6.262   1.435  0.0000  0.0000  0.0000
16779TPS     Si18706   4.498   6.262   1.249  0.0000  0.0000  0.0000
16779TPS    CA618707   4.539   6.376   1.507  0.0000  0.0000  0.0000
16779TPS    HH618708   4.554   6.472   1.458  0.0000  0.0000  0.0000
16779TPS    CA518709   4.562   6.369   1.646  0.0000  0.0000  0.0000
16779TPS    HA518710   4.594   6.456   1.701  0.0000  0.0000  0.0000
16779TPS    CA418711   4.539   6.248   1.714  0.0000  0.0000  0.0000
16779TPS    HA418712   4.558   6.242   1.821  0.0000  0.0000  0.0000
16779TPS    CA318713   4.492   6.136   1.644  0.0000  0.0000  0.0000
16779TPS    HA318714   4.475   6.043   1.698  0.0000  0.0000  0.0000
16780TPS    HA218715   5.536   8.062   1.529  0.0000  0.0000  0.0000
16780TPS    CA218716   5.563   8.154   1.580  0.0000  0.0000  0.0000
16780TPS    CA118717   5.588   8.273   1.510  0.0000  0.0000  0.0000
16780TPS     Si18718   5.588   8.273   1.324  0.0000  0.0000  0.0000
16780TPS    CA618719   5.629   8.387   1.582  0.0000  0.0000  0.0000
16780TPS    HH618720   5.644   8.483   1.533  0.0000  0.0000  0.0000
16780TPS    CA518721   5.652   8.380   1.721  0.0000  0.0000  0.0000
16780TPS    HA518722   5.684   8.467   1.776  0.0000  0.0000  0.0000
16780TPS    CA418723   5.629   8.259   1.789  0.0000  0.0000  0.0000
16780TPS    HA418724   5.648   8.253   1.896  0.0000  0.0000  0.0000
16780TPS    CA318725   5.582   8.147   1.719  0.0000  0.0000  0.0000
16780TPS    HA318726   5.565   8.054   1.773  0.0000  0.0000  0.0000
16781TPS    HA218727   3.635   6.947   1.490  0.0000  0.0000  0.0000
16781TPS    CA218728   3.662   7.039   1.541  0.0000  0.0000  0.0000
16781TPS    CA118729   3.687   7.158   1.471  0.0000  0.0000  0.0000
16781TPS     Si18730   3.687   7.158   1.285  0.0000  0.0000  0.0000
16781TPS    CA618731   3.728   7.272   1.543  0.0000  0.0000  0.0000
16781TPS    HH618732   3.743   7.368   1.494  0.0000  0.0000  0.0000
16781TPS    CA518733   3.751   7.265   1.682  0.0000  0.0000  0.0000
16781TPS    HA518734   3.783   7.352   1.737  0.0000  0.0000  0.0000
16781TPS    CA418735   3.728   7.144   1.750  0.0000  0.0000  0.0000
16781TPS    HA418736   3.747   7.138   1.857  0.0000  0.0000  0.0000
16781TPS    CA318737   3.681   7.032   1.680  0.0000  0.0000  0.0000
16781TPS    HA318738   3.664   6.939   1.734  0.0000  0.0000  0.0000
16782TPS    HA218739   2.335   9.506   8.003  0.0000  0.0000  0.0000
16782TPS    CA218740   2.362   9.414   7.952  0.0000  0.0000  0.0000
16782TPS    CA118741   2.387   9.295   8.022  0.0000  0.0000  0.0000
16782TPS     Si18742   2.387   9.295   8.208  0.0000  0.0000  0.0000
16782TPS    CA618743   2.428   9.181   7.950  0.0000  0.0000  0.0000
16782TPS    HH618744   2.443   9.085   7.999  0.0000  0.0000  0.0000
16782TPS    CA518745   2.451   9.188   7.811  0.0000  0.0000  0.0000
16782TPS    HA518746   2.483   9.101   7.756  0.0000  0.0000  0.0000
16782TPS    CA418747   2.428   9.309   7.743  0.0000  0.0000  0.0000
16782TPS    HA418748   2.447   9.315   7.636  0.0000  0.0000  0.0000
16782TPS    CA318749   2.381   9.421   7.813  0.0000  0.0000  0.0000
16782TPS    HA318750   2.364   9.514   7.759  0.0000  0.0000  0.0000
16783TPS    HA218751   0.532   5.160   1.595  0.0000  0.0000  0.0000
16783TPS    CA218752   0.559   5.252   1.646  0.0000  0.0000  0.0000
16783TPS    CA118753   0.584   5.371   1.576  0.0000  0.0000  0.0000
16783TPS     Si18754   0.584   5.371   1.390  0.0000  0.0000  0.0000
16783TPS    CA618755   0.625   5.485   1.648  0.0000  0.0000  0.0000
16783TPS    HH618756   0.640   5.581   1.599  0.0000  0.0000  0.0000
16783TPS    CA518757   0.648   5.478   1.787  0.0000  0.0000  0.0000
16783TPS    HA518758   0.680   5.565   1.842  0.0000  0.0000  0.0000
16783TPS    CA418759   0.625   5.357   1.855  0.0000  0.0000  0.0000
16783TPS    HA418760   0.644   5.351   1.962  0.0000  0.0000  0.0000
16783TPS    CA318761   0.578   5.245   1.785  0.0000  0.0000  0.0000
16783TPS    HA318762   0.561   5.152   1.839  0.0000  0.0000  0.0000
16784TPS    HA218763   7.937   6.385   8.060  0.0000  0.0000  0.0000
16784TPS    CA218764   7.964   6.293   8.009  0.0000  0.0000  0.0000
16784TPS    CA118765   7.989   6.174   8.079  0.0000  0.0000  0.0000
16784TPS     Si18766   7.989   6.174   8.265  0.0000  0.0000  0.0000
16784TPS    CA618767   8.030   6.060   8.007  0.0000  0.0000  0.0000
16784TPS    HH618768   8.045   5.964   8.056  0.0000  0.0000  0.0000
16784TPS    CA518769   8.053   6.067   7.868  0.0000  0.0000  0.0000
16784TPS    HA518770   8.085   5.980   7.813  0.0000  0.0000  0.0000
16784TPS    CA418771   8.030   6.188   7.800  0.0000  0.0000  0.0000
16784TPS    HA418772   8.049   6.194   7.693  0.0000  0.0000  0.0000
16784TPS    CA318773   7.983   6.300   7.870  0.0000  0.0000  0.0000
16784TPS    HA318774   7.966   6.393   7.816  0.0000  0.0000  0.0000
16785TPS    HA218775   1.863   3.328   1.394  0.0000  0.0000  0.0000
16785TPS    CA218776   1.857   3.423   1.445  0.0000  0.0000  0.0000
16785TPS    CA118777   1.840   3.544   1.375  0.0000  0.0000  0.0000
16785TPS     Si18778   1.840   3.544   1.189  0.0000  0.0000  0.0000
16785TPS    CA618779   1.840   3.665   1.447  0.0000  0.0000  0.0000
16785TPS    HH618780   1.821   3.760   1.398  0.0000  0.0000  0.0000
16785TPS    CA518781   1.863   3.666   1.586  0.0000  0.0000  0.0000
16785TPS    HA518782   1.864   3.759   1.641  0.0000  0.0000  0.0000
16785TPS    CA418783   1.883   3.545   1.654  0.0000  0.0000  0.0000
16785TPS    HA418784   1.903   3.546   1.761  0.0000  0.0000  0.0000
16785TPS    CA318785   1.877   3.424   1.584  0.0000  0.0000  0.0000
16785TPS    HA318786   1.893   3.331   1.638  0.0000  0.0000  0.0000
16786TPS    HA218787   3.403   5.600   8.027  0.0000  0.0000  0.0000
16786TPS    CA218788   3.430   5.508   7.976  0.0000  0.0000  0.0000
16786TPS    CA118789   3.455   5.389   8.046  0.0000  0.0000  0.0000
16786TPS     Si18790   3.455   5.389   8.232  0.0000  0.0000  0.0000
16786TPS    CA618791   3.496   5.275   7.974  0.0000  0.0000  0.0000
16786TPS    HH618792   3.511   5.179   8.023  0.0000  0.0000  0.0000
16786TPS    CA518793   3.519   5.282   7.835  0.0000  0.0000  0.0000
16786TPS    HA518794   3.551   5.195   7.780  0.0000  0.0000  0.0000
16786TPS    CA418795   3.496   5.403   7.767  0.0000  0.0000  0.0000
16786TPS    HA418796   3.515   5.409   7.660  0.0000  0.0000  0.0000
16786TPS    CA318797   3.449   5.515   7.837  0.0000  0.0000  0.0000
16786TPS    HA318798   3.432   5.608   7.783  0.0000  0.0000  0.0000
16787TPS    HA218799   5.831   1.032   8.049  0.0000  0.0000  0.0000
16787TPS    CA218800   5.858   0.940   7.998  0.0000  0.0000  0.0000
16787TPS    CA118801   5.883   0.821   8.068  0.0000  0.0000  0.0000
16787TPS     Si18802   5.883   0.821   8.254  0.0000  0.0000  0.0000
16787TPS    CA618803   5.924   0.707   7.996  0.0000  0.0000  0.0000
16787TPS    HH618804   5.939   0.611   8.045  0.0000  0.0000  0.0000
16787TPS    CA518805   5.947   0.714   7.857  0.0000  0.0000  0.0000
16787TPS    HA518806   5.979   0.627   7.802  0.0000  0.0000  0.0000
16787TPS    CA418807   5.924   0.835   7.789  0.0000  0.0000  0.0000
16787TPS    HA418808   5.943   0.841   7.682  0.0000  0.0000  0.0000
16787TPS    CA318809   5.877   0.947   7.859  0.0000  0.0000  0.0000
16787TPS    HA318810   5.860   1.040   7.805  0.0000  0.0000  0.0000
16788TPS    HA218811   1.907   8.406   1.459  0.0000  0.0000  0.0000
16788TPS    CA218812   1.934   8.498   1.510  0.0000  0.0000  0.0000
16788TPS    CA118813   1.959   8.617   1.440  0.0000  0.0000  0.0000
16788TPS     Si18814   1.959   8.617   1.254  0.0000  0.0000  0.0000
16788TPS    CA618815   2.000   8.731   1.512  0.0000  0.0000  0.0000
16788TPS    HH618816   2.015   8.827   1.463  0.0000  0.0000  0.0000
16788TPS    CA518817   2.023   8.724   1.651  0.0000  0.0000  0.0000
16788TPS    HA518818   2.055   8.811   1.706  0.0000  0.0000  0.0000
16788TPS    CA418819   2.000   8.603   1.719  0.0000  0.0000  0.0000
16788TPS    HA418820   2.019   8.597   1.826  0.0000  0.0000  0.0000
16788TPS    CA318821   1.953   8.491   1.649  0.0000  0.0000  0.0000
16788TPS    HA318822   1.936   8.398   1.703  0.0000  0.0000  0.0000
16789TPS    HA218823   0.114   2.524   1.441  0.0000  0.0000  0.0000
16789TPS    CA218824   0.141   2.616   1.492  0.0000  0.0000  0.0000
16789TPS    CA118825   0.166   2.735   1.422  0.0000  0.0000  0.0000
16789TPS     Si18826   0.166   2.735   1.236  0.0000  0.0000  0.0000
16789TPS    CA618827   0.207   2.849   1.494  0.0000  0.0000  0.0000
16789TPS    HH618828   0.222   2.945   1.445  0.0000  0.0000  0.0000
16789TPS    CA518829   0.230   2.842   1.633  0.0000  0.0000  0.0000
16789TPS    HA518830   0.262   2.929   1.688  0.0000  0.0000  0.0000
16789TPS    CA418831   0.207   2.721   1.701  0.0000  0.0000  0.0000
16789TPS    HA418832   0.226   2.715   1.808  0.0000  0.0000  0.0000
16789TPS    CA318833   0.160   2.609   1.631  0.0000  0.0000  0.0000
16789TPS    HA318834   0.143   2.516   1.685  0.0000  0.0000  0.0000
16790TPS    HA218835   3.616   2.746   8.172  0.0000  0.0000  0.0000
16790TPS    CA218836   3.643   2.654   8.121  0.0000  0.0000  0.0000
16790TPS    CA118837   3.668   2.535   8.191  0.0000  0.0000  0.0000
16790TPS     Si18838   3.668   2.535   8.377  0.0000  0.0000  0.0000
16790TPS    CA618839   3.709   2.421   8.119  0.0000  0.0000  0.0000
16790TPS    HH618840   3.724   2.325   8.168  0.0000  0.0000  0.0000
16790TPS    CA518841   3.732   2.428   7.980  0.0000  0.0000  0.0000
16790TPS    HA518842   3.764   2.341   7.925  0.0000  0.0000  0.0000
16790TPS    CA418843   3.709   2.549   7.912  0.0000  0.0000  0.0000
16790TPS    HA418844   3.728   2.555   7.805  0.0000  0.0000  0.0000
16790TPS    CA318845   3.662   2.661   7.982  0.0000  0.0000  0.0000
16790TPS    HA318846   3.645   2.754   7.928  0.0000  0.0000  0.0000
16791TPS    HA218847   1.674   7.945   8.133  0.0000  0.0000  0.0000
16791TPS    CA218848   1.701   7.853   8.082  0.0000  0.0000  0.0000
16791TPS    CA118849   1.726   7.734   8.152  0.0000  0.0000  0.0000
16791TPS     Si18850   1.726   7.734   8.338  0.0000  0.0000  0.0000
16791TPS    CA618851   1.767   7.620   8.080  0.0000  0.0000  0.0000
16791TPS    HH618852   1.782   7.524   8.129  0.0000  0.0000  0.0000
16791TPS    CA518853   1.790   7.627   7.941  0.0000  0.0000  0.0000
16791TPS    HA518854   1.822   7.540   7.886  0.0000  0.0000  0.0000
16791TPS    CA418855   1.767   7.748   7.873  0.0000  0.0000  0.0000
16791TPS    HA418856   1.786   7.754   7.766  0.0000  0.0000  0.0000
16791TPS    CA318857   1.720   7.860   7.943  0.0000  0.0000  0.0000
16791TPS    HA318858   1.703   7.953   7.889  0.0000  0.0000  0.0000
16792TPS    HA218859   3.961   7.570   1.636  0.0000  0.0000  0.0000
16792TPS    CA218860   3.988   7.662   1.687  0.0000  0.0000  0.0000
16792TPS    CA118861   4.013   7.781   1.617  0.0000  0.0000  0.0000
16792TPS     Si18862   4.013   7.781   1.431  0.0000  0.0000  0.0000
16792TPS    CA618863   4.054   7.895   1.689  0.0000  0.0000  0.0000
16792TPS    HH618864   4.069   7.991   1.640  0.0000  0.0000  0.0000
16792TPS    CA518865   4.077   7.888   1.828  0.0000  0.0000  0.0000
16792TPS    HA518866   4.109   7.975   1.883  0.0000  0.0000  0.0000
16792TPS    CA418867   4.054   7.767   1.896  0.0000  0.0000  0.0000
16792TPS    HA418868   4.073   7.761   2.003  0.0000  0.0000  0.0000
16792TPS    CA318869   4.007   7.655   1.826  0.0000  0.0000  0.0000
16792TPS    HA318870   3.990   7.562   1.880  0.0000  0.0000  0.0000
16793TPS    HA218871   8.321   9.126   1.582  0.0000  0.0000  0.0000
16793TPS    CA218872   8.348   9.218   1.633  0.0000  0.0000  0.0000
16793TPS    CA118873   8.373   9.337   1.563  0.0000  0.0000  0.0000
16793TPS     Si18874   8.373   9.337   1.377  0.0000  0.0000  0.0000
16793TPS    CA618875   8.414   9.451   1.635  0.0000  0.0000  0.0000
16793TPS    HH618876   8.429   9.547   1.586  0.0000  0.0000  0.0000
16793TPS    CA518877   8.437   9.444   1.774  0.0000  0.0000  0.0000
16793TPS    HA518878   8.469   9.531   1.829  0.0000  0.0000  0.0000
16793TPS    CA418879   8.414   9.323   1.842  0.0000  0.0000  0.0000
16793TPS    HA418880   8.433   9.317   1.949  0.0000  0.0000  0.0000
16793TPS    CA318881   8.367   9.211   1.772  0.0000  0.0000  0.0000
16793TPS    HA318882   8.350   9.118   1.826  0.0000  0.0000  0.0000
16794TPS    HA218883   3.400   9.658   8.190  0.0000  0.0000  0.0000
16794TPS    CA218884   3.427   9.566   8.139  0.0000  0.0000  0.0000
16794TPS    CA118885   3.452   9.447   8.209  0.0000  0.0000  0.0000
16794TPS     Si18886   3.452   9.447   8.395  0.0000  0.0000  0.0000
16794TPS    CA618887   3.493   9.333   8.137  0.0000  0.0000  0.0000
16794TPS    HH618888   3.508   9.237   8.186  0.0000  0.0000  0.0000
16794TPS    CA518889   3.516   9.340   7.998  0.0000  0.0000  0.0000
16794TPS    HA518890   3.548   9.253   7.943  0.0000  0.0000  0.0000
16794TPS    CA418891   3.493   9.461   7.930  0.0000  0.0000  0.0000
16794TPS    HA418892   3.512   9.467   7.823  0.0000  0.0000  0.0000
16794TPS    CA318893   3.446   9.573   8.000  0.0000  0.0000  0.0000
16794TPS    HA318894   3.429   9.666   7.946  0.0000  0.0000  0.0000
16795TPS    HA218895   5.570   9.125   8.219  0.0000  0.0000  0.0000
16795TPS    CA218896   5.597   9.033   8.168  0.0000  0.0000  0.0000
16795TPS    CA118897   5.622   8.914   8.238  0.0000  0.0000  0.0000
16795TPS     Si18898   5.622   8.914   8.424  0.0000  0.0000  0.0000
16795TPS    CA618899   5.663   8.800   8.166  0.0000  0.0000  0.0000
16795TPS    HH618900   5.678   8.704   8.215  0.0000  0.0000  0.0000
16795TPS    CA518901   5.686   8.807   8.027  0.0000  0.0000  0.0000
16795TPS    HA518902   5.718   8.720   7.972  0.0000  0.0000  0.0000
16795TPS    CA418903   5.663   8.928   7.959  0.0000  0.0000  0.0000
16795TPS    HA418904   5.682   8.934   7.852  0.0000  0.0000  0.0000
16795TPS    CA318905   5.616   9.040   8.029  0.0000  0.0000  0.0000
16795TPS    HA318906   5.599   9.133   7.975  0.0000  0.0000  0.0000
16796TPS    HA218907   6.800   9.258   8.171  0.0000  0.0000  0.0000
16796TPS    CA218908   6.827   9.166   8.120  0.0000  0.0000  0.0000
16796TPS    CA118909   6.852   9.047   8.190  0.0000  0.0000  0.0000
16796TPS     Si18910   6.852   9.047   8.376  0.0000  0.0000  0.0000
16796TPS    CA618911   6.893   8.933   8.118  0.0000  0.0000  0.0000
16796TPS    HH618912   6.908   8.837   8.167  0.0000  0.0000  0.0000
16796TPS    CA518913   6.916   8.940   7.979  0.0000  0.0000  0.0000
16796TPS    HA518914   6.948   8.853   7.924  0.0000  0.0000  0.0000
16796TPS    CA418915   6.893   9.061   7.911  0.0000  0.0000  0.0000
16796TPS    HA418916   6.912   9.067   7.804  0.0000  0.0000  0.0000
16796TPS    CA318917   6.846   9.173   7.981  0.0000  0.0000  0.0000
16796TPS    HA318918   6.829   9.266   7.927  0.0000  0.0000  0.0000
16797TPS    HA218919   3.274   7.142   8.123  0.0000  0.0000  0.0000
16797TPS    CA218920   3.301   7.050   8.072  0.0000  0.0000  0.0000
16797TPS    CA118921   3.326   6.931   8.142  0.0000  0.0000  0.0000
16797TPS     Si18922   3.326   6.931   8.328  0.0000  0.0000  0.0000
16797TPS    CA618923   3.367   6.817   8.070  0.0000  0.0000  0.0000
16797TPS    HH618924   3.382   6.721   8.119  0.0000  0.0000  0.0000
16797TPS    CA518925   3.390   6.824   7.931  0.0000  0.0000  0.0000
16797TPS    HA518926   3.422   6.737   7.876  0.0000  0.0000  0.0000
16797TPS    CA418927   3.367   6.945   7.863  0.0000  0.0000  0.0000
16797TPS    HA418928   3.386   6.951   7.756  0.0000  0.0000  0.0000
16797TPS    CA318929   3.320   7.057   7.933  0.0000  0.0000  0.0000
16797TPS    HA318930   3.303   7.150   7.879  0.0000  0.0000  0.0000
16798TPS    HA218931   6.986   5.771   8.016  0.0000  0.0000  0.0000
16798TPS    CA218932   7.013   5.679   7.965  0.0000  0.0000  0.0000
16798TPS    CA118933   7.038   5.560   8.035  0.0000  0.0000  0.0000
16798TPS     Si18934   7.038   5.560   8.221  0.0000  0.0000  0.0000
16798TPS    CA618935   7.079   5.446   7.963  0.0000  0.0000  0.0000
16798TPS    HH618936   7.094   5.350   8.012  0.0000  0.0000  0.0000
16798TPS    CA518937   7.102   5.453   7.824  0.0000  0.0000  0.0000
16798TPS    HA518938   7.134   5.366   7.769  0.0000  0.0000  0.0000
16798TPS    CA418939   7.079   5.574   7.756  0.0000  0.0000  0.0000
16798TPS    HA418940   7.098   5.580   7.649  0.0000  0.0000  0.0000
16798TPS    CA318941   7.032   5.686   7.826  0.0000  0.0000  0.0000
16798TPS    HA318942   7.015   5.779   7.772  0.0000  0.0000  0.0000
16799TPS    HA218943   3.352   3.066   8.070  0.0000  0.0000  0.0000
16799TPS    CA218944   3.379   2.974   8.019  0.0000  0.0000  0.0000
16799TPS    CA118945   3.404   2.855   8.089  0.0000  0.0000  0.0000
16799TPS     Si18946   3.404   2.855   8.275  0.0000  0.0000  0.0000
16799TPS    CA618947   3.445   2.741   8.017  0.0000  0.0000  0.0000
16799TPS    HH618948   3.460   2.645   8.066  0.0000  0.0000  0.0000
16799TPS    CA518949   3.468   2.748   7.878  0.0000  0.0000  0.0000
16799TPS    HA518950   3.500   2.661   7.823  0.0000  0.0000  0.0000
16799TPS    CA418951   3.445   2.869   7.810  0.0000  0.0000  0.0000
16799TPS    HA418952   3.464   2.875   7.703  0.0000  0.0000  0.0000
16799TPS    CA318953   3.398   2.981   7.880  0.0000  0.0000  0.0000
16799TPS    HA318954   3.381   3.074   7.826  0.0000  0.0000  0.0000
16800TPS    HA218955   8.266   5.115   1.573  0.0000  0.0000  0.0000
16800TPS    CA218956   8.293   5.207   1.624  0.0000  0.0000  0.0000
16800TPS    CA118957   8.318   5.326   1.554  0.0000  0.0000  0.0000
16800TPS     Si18958   8.318   5.326   1.368  0.0000  0.0000  0.0000
16800TPS    CA618959   8.359   5.440   1.626  0.0000  0.0000  0.0000
16800TPS    HH618960   8.374   5.536   1.577  0.0000  0.0000  0.0000
16800TPS    CA518961   8.382   5.433   1.765  0.0000  0.0000  0.0000
16800TPS    HA518962   8.414   5.520   1.820  0.0000  0.0000  0.0000
16800TPS    CA418963   8.359   5.312   1.833  0.0000  0.0000  0.0000
16800TPS    HA418964   8.378   5.306   1.940  0.0000  0.0000  0.0000
16800TPS    CA318965   8.312   5.200   1.763  0.0000  0.0000  0.0000
16800TPS    HA318966   8.295   5.107   1.817  0.0000  0.0000  0.0000
16801TPS    HA218967   6.740   3.284   8.115  0.0000  0.0000  0.0000
16801TPS    CA218968   6.767   3.192   8.064  0.0000  0.0000  0.0000
16801TPS    CA118969   6.792   3.073   8.134  0.0000  0.0000  0.0000
16801TPS     Si18970   6.792   3.073   8.320  0.0000  0.0000  0.0000
16801TPS    CA618971   6.833   2.959   8.062  0.0000  0.0000  0.0000
16801TPS    HH618972   6.848   2.863   8.111  0.0000  0.0000  0.0000
16801TPS    CA518973   6.856   2.966   7.923  0.0000  0.0000  0.0000
16801TPS    HA518974   6.888   2.879   7.868  0.0000  0.0000  0.0000
16801TPS    CA418975   6.833   3.087   7.855  0.0000  0.0000  0.0000
16801TPS    HA418976   6.852   3.093   7.748  0.0000  0.0000  0.0000
16801TPS    CA318977   6.786   3.199   7.925  0.0000  0.0000  0.0000
16801TPS    HA318978   6.769   3.292   7.871  0.0000  0.0000  0.0000
16802TPS    HA218979   7.686   1.099   8.099  0.0000  0.0000  0.0000
16802TPS    CA218980   7.713   1.007   8.048  0.0000  0.0000  0.0000
16802TPS    CA118981   7.738   0.888   8.118  0.0000  0.0000  0.0000
16802TPS     Si18982   7.738   0.888   8.304  0.0000  0.0000  0.0000
16802TPS    CA618983   7.779   0.774   8.046  0.0000  0.0000  0.0000
16802TPS    HH618984   7.794   0.678   8.095  0.0000  0.0000  0.0000
16802TPS    CA518985   7.802   0.781   7.907  0.0000  0.0000  0.0000
16802TPS    HA518986   7.834   0.694   7.852  0.0000  0.0000  0.0000
16802TPS    CA418987   7.779   0.902   7.839  0.0000  0.0000  0.0000
16802TPS    HA418988   7.798   0.908   7.732  0.0000  0.0000  0.0000
16802TPS    CA318989   7.732   1.014   7.909  0.0000  0.0000  0.0000
16802TPS    HA318990   7.715   1.107   7.855  0.0000  0.0000  0.0000
16803TPS    HA218991  -0.013   4.516   8.168  0.0000  0.0000  0.0000
16803TPS    CA218992   0.014   4.424   8.117  0.0000  0.0000  0.0000
16803TPS    CA118993   0.039   4.305   8.187  0.0000  0.0000  0.0000
16803TPS     Si18994   0.039   4.305   8.373  0.0000  0.0000  0.0000
16803TPS    CA618995   0.080   4.191   8.115  0.0000  0.0000  0.0000
16803TPS    HH618996   0.095   4.095   8.164  0.0000  0.0000  0.0000
16803TPS    CA518997   0.103   4.198   7.976  0.0000  0.0000  0.0000
16803TPS    HA518998   0.135   4.111   7.921  0.0000  0.0000  0.0000
16803TPS    CA418999   0.080   4.319   7.908  0.0000  0.0000  0.0000
16803TPS    HA419000   0.099   4.325   7.801  0.0000  0.0000  0.0000
16803TPS    CA319001   0.033   4.431   7.978  0.0000  0.0000  0.0000
16803TPS    HA319002   0.016   4.524   7.924  0.0000  0.0000  0.0000
16804TPS    HA219003   3.349   1.289   8.240  0.0000  0.0000  0.0000
16804TPS    CA219004   3.254   1.278   8.189  0.0000  0.0000  0.0000
16804TPS    CA119005   3.132   1.274   8.259  0.0000  0.0000  0.0000
16804TPS     Si19006   3.132   1.274   8.445  0.0000  0.0000  0.0000
16804TPS    CA619007   3.012   1.253   8.187  0.0000  0.0000  0.0000
16804TPS    HH619008   2.916   1.255   8.236  0.0000  0.0000  0.0000
16804TPS    CA519009   3.016   1.230   8.048  0.0000  0.0000  0.0000
16804TPS    HA519010   2.924   1.213   7.993  0.0000  0.0000  0.0000
16804TPS    CA419011   3.138   1.231   7.980  0.0000  0.0000  0.0000
16804TPS    HA419012   3.141   1.211   7.873  0.0000  0.0000  0.0000
16804TPS    CA319013   3.257   1.258   8.050  0.0000  0.0000  0.0000
16804TPS    HA319014   3.351   1.259   7.996  0.0000  0.0000  0.0000
16805TPS    HA219015   9.073   0.334   7.998  0.0000  0.0000  0.0000
16805TPS    CA219016   9.100   0.242   7.947  0.0000  0.0000  0.0000
16805TPS    CA119017   9.125   0.123   8.017  0.0000  0.0000  0.0000
16805TPS     Si19018   9.125   0.123   8.203  0.0000  0.0000  0.0000
16805TPS    CA619019   9.166   0.009   7.945  0.0000  0.0000  0.0000
16805TPS    HH619020   9.181  -0.087   7.994  0.0000  0.0000  0.0000
16805TPS    CA519021   9.189   0.016   7.806  0.0000  0.0000  0.0000
16805TPS    HA519022   9.221  -0.071   7.751  0.0000  0.0000  0.0000
16805TPS    CA419023   9.166   0.137   7.738  0.0000  0.0000  0.0000
16805TPS    HA419024   9.185   0.143   7.631  0.0000  0.0000  0.0000
16805TPS    CA319025   9.119   0.249   7.808  0.0000  0.0000  0.0000
16805TPS    HA319026   9.102   0.342   7.754  0.0000  0.0000  0.0000
16806TPS    HA219027   9.331   4.963   8.215  0.0000  0.0000  0.0000
16806TPS    CA219028   9.358   4.871   8.164  0.0000  0.0000  0.0000
16806TPS    CA119029   9.383   4.752   8.234  0.0000  0.0000  0.0000
16806TPS     Si19030   9.383   4.752   8.420  0.0000  0.0000  0.0000
16806TPS    CA619031   9.424   4.638   8.162  0.0000  0.0000  0.0000
16806TPS    HH619032   9.439   4.542   8.211  0.0000  0.0000  0.0000
16806TPS    CA519033   9.447   4.645   8.023  0.0000  0.0000  0.0000
16806TPS    HA519034   9.479   4.558   7.968  0.0000  0.0000  0.0000
16806TPS    CA419035   9.424   4.766   7.955  0.0000  0.0000  0.0000
16806TPS    HA419036   9.443   4.772   7.848  0.0000  0.0000  0.0000
16806TPS    CA319037   9.377   4.878   8.025  0.0000  0.0000  0.0000
16806TPS    HA319038   9.360   4.971   7.971  0.0000  0.0000  0.0000
16807TPS    HA219039   9.121   2.803   8.123  0.0000  0.0000  0.0000
16807TPS    CA219040   9.148   2.711   8.072  0.0000  0.0000  0.0000
16807TPS    CA119041   9.173   2.592   8.142  0.0000  0.0000  0.0000
16807TPS     Si19042   9.173   2.592   8.328  0.0000  0.0000  0.0000
16807TPS    CA619043   9.214   2.478   8.070  0.0000  0.0000  0.0000
16807TPS    HH619044   9.229   2.382   8.119  0.0000  0.0000  0.0000
16807TPS    CA519045   9.237   2.485   7.931  0.0000  0.0000  0.0000
16807TPS    HA519046   9.269   2.398   7.876  0.0000  0.0000  0.0000
16807TPS    CA419047   9.214   2.606   7.863  0.0000  0.0000  0.0000
16807TPS    HA419048   9.233   2.612   7.756  0.0000  0.0000  0.0000
16807TPS    CA319049   9.167   2.718   7.933  0.0000  0.0000  0.0000
16807TPS    HA319050   9.150   2.811   7.879  0.0000  0.0000  0.0000
16808TPS    HA219051   9.530   7.970   1.559  0.0000  0.0000  0.0000
16808TPS    CA219052   9.536   7.875   1.610  0.0000  0.0000  0.0000
16808TPS    CA119053   9.553   7.754   1.540  0.0000  0.0000  0.0000
16808TPS     Si19054   9.553   7.754   1.354  0.0000  0.0000  0.0000
16808TPS    CA619055   9.553   7.633   1.612  0.0000  0.0000  0.0000
16808TPS    HH619056   9.572   7.538   1.563  0.0000  0.0000  0.0000
16808TPS    CA519057   9.530   7.632   1.751  0.0000  0.0000  0.0000
16808TPS    HA519058   9.529   7.539   1.806  0.0000  0.0000  0.0000
16808TPS    CA419059   9.510   7.753   1.819  0.0000  0.0000  0.0000
16808TPS    HA419060   9.490   7.752   1.926  0.0000  0.0000  0.0000
16808TPS    CA319061   9.516   7.874   1.749  0.0000  0.0000  0.0000
16808TPS    HA319062   9.500   7.967   1.803  0.0000  0.0000  0.0000
16809TPS    HA219063   6.390   9.337   8.192  0.0000  0.0000  0.0000
16809TPS    CA219064   6.417   9.245   8.141  0.0000  0.0000  0.0000
16809TPS    CA119065   6.442   9.126   8.211  0.0000  0.0000  0.0000
16809TPS     Si19066   6.442   9.126   8.397  0.0000  0.0000  0.0000
16809TPS    CA619067   6.483   9.012   8.139  0.0000  0.0000  0.0000
16809TPS    HH619068   6.498   8.916   8.188  0.0000  0.0000  0.0000
16809TPS    CA519069   6.506   9.019   8.000  0.0000  0.0000  0.0000
16809TPS    HA519070   6.538   8.932   7.945  0.0000  0.0000  0.0000
16809TPS    CA419071   6.483   9.140   7.932  0.0000  0.0000  0.0000
16809TPS    HA419072   6.502   9.146   7.825  0.0000  0.0000  0.0000
16809TPS    CA319073   6.436   9.252   8.002  0.0000  0.0000  0.0000
16809TPS    HA319074   6.419   9.345   7.948  0.0000  0.0000  0.0000
16810TPS    HA219075   0.237   9.346   1.374  0.0000  0.0000  0.0000
16810TPS    CA219076   0.231   9.441   1.425  0.0000  0.0000  0.0000
16810TPS    CA119077   0.214   9.562   1.355  0.0000  0.0000  0.0000
16810TPS     Si19078   0.214   9.562   1.169  0.0000  0.0000  0.0000
16810TPS    CA619079   0.214   9.683   1.427  0.0000  0.0000  0.0000
16810TPS    HH619080   0.195   9.778   1.378  0.0000  0.0000  0.0000
16810TPS    CA519081   0.237   9.684   1.566  0.0000  0.0000  0.0000
16810TPS    HA519082   0.238   9.777   1.621  0.0000  0.0000  0.0000
16810TPS    CA419083   0.257   9.563   1.634  0.0000  0.0000  0.0000
16810TPS    HA419084   0.277   9.564   1.741  0.0000  0.0000  0.0000
16810TPS    CA319085   0.251   9.442   1.564  0.0000  0.0000  0.0000
16810TPS    HA319086   0.267   9.349   1.618  0.0000  0.0000  0.0000
16811TPS    HA219087   8.220   3.383   1.487  0.0000  0.0000  0.0000
16811TPS    CA219088   8.247   3.475   1.538  0.0000  0.0000  0.0000
16811TPS    CA119089   8.272   3.594   1.468  0.0000  0.0000  0.0000
16811TPS     Si19090   8.272   3.594   1.282  0.0000  0.0000  0.0000
16811TPS    CA619091   8.313   3.708   1.540  0.0000  0.0000  0.0000
16811TPS    HH619092   8.328   3.804   1.491  0.0000  0.0000  0.0000
16811TPS    CA519093   8.336   3.701   1.679  0.0000  0.0000  0.0000
16811TPS    HA519094   8.368   3.788   1.734  0.0000  0.0000  0.0000
16811TPS    CA419095   8.313   3.580   1.747  0.0000  0.0000  0.0000
16811TPS    HA419096   8.332   3.574   1.854  0.0000  0.0000  0.0000
16811TPS    CA319097   8.266   3.468   1.677  0.0000  0.0000  0.0000
16811TPS    HA319098   8.249   3.375   1.731  0.0000  0.0000  0.0000
16812TPS    HA219099   6.478   7.529   1.565  0.0000  0.0000  0.0000
16812TPS    CA219100   6.505   7.621   1.616  0.0000  0.0000  0.0000
16812TPS    CA119101   6.530   7.740   1.546  0.0000  0.0000  0.0000
16812TPS     Si19102   6.530   7.740   1.360  0.0000  0.0000  0.0000
16812TPS    CA619103   6.571   7.854   1.618  0.0000  0.0000  0.0000
16812TPS    HH619104   6.586   7.950   1.569  0.0000  0.0000  0.0000
16812TPS    CA519105   6.594   7.847   1.757  0.0000  0.0000  0.0000
16812TPS    HA519106   6.626   7.934   1.812  0.0000  0.0000  0.0000
16812TPS    CA419107   6.571   7.726   1.825  0.0000  0.0000  0.0000
16812TPS    HA419108   6.590   7.720   1.932  0.0000  0.0000  0.0000
16812TPS    CA319109   6.524   7.614   1.755  0.0000  0.0000  0.0000
16812TPS    HA319110   6.507   7.521   1.809  0.0000  0.0000  0.0000
16813TPS    HA219111   8.201   5.823   8.152  0.0000  0.0000  0.0000
16813TPS    CA219112   8.108   5.846   8.101  0.0000  0.0000  0.0000
16813TPS    CA119113   7.992   5.884   8.171  0.0000  0.0000  0.0000
16813TPS     Si19114   7.992   5.884   8.357  0.0000  0.0000  0.0000
16813TPS    CA619115   7.873   5.906   8.099  0.0000  0.0000  0.0000
16813TPS    HH619116   7.782   5.940   8.148  0.0000  0.0000  0.0000
16813TPS    CA519117   7.868   5.882   7.960  0.0000  0.0000  0.0000
16813TPS    HA519118   7.776   5.898   7.905  0.0000  0.0000  0.0000
16813TPS    CA419119   7.983   5.842   7.892  0.0000  0.0000  0.0000
16813TPS    HA419120   7.979   5.822   7.785  0.0000  0.0000  0.0000
16813TPS    CA319121   8.104   5.826   7.962  0.0000  0.0000  0.0000
16813TPS    HA319122   8.193   5.795   7.908  0.0000  0.0000  0.0000
16814TPS    HA219123   6.409   8.891   8.080  0.0000  0.0000  0.0000
16814TPS    CA219124   6.436   8.799   8.029  0.0000  0.0000  0.0000
16814TPS    CA119125   6.461   8.680   8.099  0.0000  0.0000  0.0000
16814TPS     Si19126   6.461   8.680   8.285  0.0000  0.0000  0.0000
16814TPS    CA619127   6.502   8.566   8.027  0.0000  0.0000  0.0000
16814TPS    HH619128   6.517   8.470   8.076  0.0000  0.0000  0.0000
16814TPS    CA519129   6.525   8.573   7.888  0.0000  0.0000  0.0000
16814TPS    HA519130   6.557   8.486   7.833  0.0000  0.0000  0.0000
16814TPS    CA419131   6.502   8.694   7.820  0.0000  0.0000  0.0000
16814TPS    HA419132   6.521   8.700   7.713  0.0000  0.0000  0.0000
16814TPS    CA319133   6.455   8.806   7.890  0.0000  0.0000  0.0000
16814TPS    HA319134   6.438   8.899   7.836  0.0000  0.0000  0.0000
16815TPS    HA219135   1.004   3.472   1.410  0.0000  0.0000  0.0000
16815TPS    CA219136   1.031   3.564   1.461  0.0000  0.0000  0.0000
16815TPS    CA119137   1.056   3.683   1.391  0.0000  0.0000  0.0000
16815TPS     Si19138   1.056   3.683   1.205  0.0000  0.0000  0.0000
16815TPS    CA619139   1.097   3.797   1.463  0.0000  0.0000  0.0000
16815TPS    HH619140   1.112   3.893   1.414  0.0000  0.0000  0.0000
16815TPS    CA519141   1.120   3.790   1.602  0.0000  0.0000  0.0000
16815TPS    HA519142   1.152   3.877   1.657  0.0000  0.0000  0.0000
16815TPS    CA419143   1.097   3.669   1.670  0.0000  0.0000  0.0000
16815TPS    HA419144   1.116   3.663   1.777  0.0000  0.0000  0.0000
16815TPS    CA319145   1.050   3.557   1.600  0.0000  0.0000  0.0000
16815TPS    HA319146   1.033   3.464   1.654  0.0000  0.0000  0.0000
16816TPS    HA219147   2.225   3.336   8.044  0.0000  0.0000  0.0000
16816TPS    CA219148   2.252   3.244   7.993  0.0000  0.0000  0.0000
16816TPS    CA119149   2.277   3.125   8.063  0.0000  0.0000  0.0000
16816TPS     Si19150   2.277   3.125   8.249  0.0000  0.0000  0.0000
16816TPS    CA619151   2.318   3.011   7.991  0.0000  0.0000  0.0000
16816TPS    HH619152   2.333   2.915   8.040  0.0000  0.0000  0.0000
16816TPS    CA519153   2.341   3.018   7.852  0.0000  0.0000  0.0000
16816TPS    HA519154   2.373   2.931   7.797  0.0000  0.0000  0.0000
16816TPS    CA419155   2.318   3.139   7.784  0.0000  0.0000  0.0000
16816TPS    HA419156   2.337   3.145   7.677  0.0000  0.0000  0.0000
16816TPS    CA319157   2.271   3.251   7.854  0.0000  0.0000  0.0000
16816TPS    HA319158   2.254   3.344   7.800  0.0000  0.0000  0.0000
16817TPS    HA219159   6.192   5.203   8.101  0.0000  0.0000  0.0000
16817TPS    CA219160   6.219   5.111   8.050  0.0000  0.0000  0.0000
16817TPS    CA119161   6.244   4.992   8.120  0.0000  0.0000  0.0000
16817TPS     Si19162   6.244   4.992   8.306  0.0000  0.0000  0.0000
16817TPS    CA619163   6.285   4.878   8.048  0.0000  0.0000  0.0000
16817TPS    HH619164   6.300   4.782   8.097  0.0000  0.0000  0.0000
16817TPS    CA519165   6.308   4.885   7.909  0.0000  0.0000  0.0000
16817TPS    HA519166   6.340   4.798   7.854  0.0000  0.0000  0.0000
16817TPS    CA419167   6.285   5.006   7.841  0.0000  0.0000  0.0000
16817TPS    HA419168   6.304   5.012   7.734  0.0000  0.0000  0.0000
16817TPS    CA319169   6.238   5.118   7.911  0.0000  0.0000  0.0000
16817TPS    HA319170   6.221   5.211   7.857  0.0000  0.0000  0.0000
16818TPS    HA219171   0.730   9.305   1.374  0.0000  0.0000  0.0000
16818TPS    CA219172   0.724   9.400   1.425  0.0000  0.0000  0.0000
16818TPS    CA119173   0.707   9.521   1.355  0.0000  0.0000  0.0000
16818TPS     Si19174   0.707   9.521   1.169  0.0000  0.0000  0.0000
16818TPS    CA619175   0.707   9.642   1.427  0.0000  0.0000  0.0000
16818TPS    HH619176   0.688   9.737   1.378  0.0000  0.0000  0.0000
16818TPS    CA519177   0.730   9.643   1.566  0.0000  0.0000  0.0000
16818TPS    HA519178   0.731   9.736   1.621  0.0000  0.0000  0.0000
16818TPS    CA419179   0.750   9.522   1.634  0.0000  0.0000  0.0000
16818TPS    HA419180   0.770   9.523   1.741  0.0000  0.0000  0.0000
16818TPS    CA319181   0.744   9.401   1.564  0.0000  0.0000  0.0000
16818TPS    HA319182   0.760   9.308   1.618  0.0000  0.0000  0.0000
16819TPS    HA219183   6.329   7.398   8.201  0.0000  0.0000  0.0000
16819TPS    CA219184   6.356   7.306   8.150  0.0000  0.0000  0.0000
16819TPS    CA119185   6.381   7.187   8.220  0.0000  0.0000  0.0000
16819TPS     Si19186   6.381   7.187   8.406  0.0000  0.0000  0.0000
16819TPS    CA619187   6.422   7.073   8.148  0.0000  0.0000  0.0000
16819TPS    HH619188   6.437   6.977   8.197  0.0000  0.0000  0.0000
16819TPS    CA519189   6.445   7.080   8.009  0.0000  0.0000  0.0000
16819TPS    HA519190   6.477   6.993   7.954  0.0000  0.0000  0.0000
16819TPS    CA419191   6.422   7.201   7.941  0.0000  0.0000  0.0000
16819TPS    HA419192   6.441   7.207   7.834  0.0000  0.0000  0.0000
16819TPS    CA319193   6.375   7.313   8.011  0.0000  0.0000  0.0000
16819TPS    HA319194   6.358   7.406   7.957  0.0000  0.0000  0.0000
16820TPS    HA219195   5.749   6.015   1.469  0.0000  0.0000  0.0000
16820TPS    CA219196   5.776   6.107   1.520  0.0000  0.0000  0.0000
16820TPS    CA119197   5.801   6.226   1.450  0.0000  0.0000  0.0000
16820TPS     Si19198   5.801   6.226   1.264  0.0000  0.0000  0.0000
16820TPS    CA619199   5.842   6.340   1.522  0.0000  0.0000  0.0000
16820TPS    HH619200   5.857   6.436   1.473  0.0000  0.0000  0.0000
16820TPS    CA519201   5.865   6.333   1.661  0.0000  0.0000  0.0000
16820TPS    HA519202   5.897   6.420   1.716  0.0000  0.0000  0.0000
16820TPS    CA419203   5.842   6.212   1.729  0.0000  0.0000  0.0000
16820TPS    HA419204   5.861   6.206   1.836  0.0000  0.0000  0.0000
16820TPS    CA319205   5.795   6.100   1.659  0.0000  0.0000  0.0000
16820TPS    HA319206   5.778   6.007   1.713  0.0000  0.0000  0.0000
16821TPS    HA219207   6.074   5.633   1.482  0.0000  0.0000  0.0000
16821TPS    CA219208   6.101   5.725   1.533  0.0000  0.0000  0.0000
16821TPS    CA119209   6.126   5.844   1.463  0.0000  0.0000  0.0000
16821TPS     Si19210   6.126   5.844   1.277  0.0000  0.0000  0.0000
16821TPS    CA619211   6.167   5.958   1.535  0.0000  0.0000  0.0000
16821TPS    HH619212   6.182   6.054   1.486  0.0000  0.0000  0.0000
16821TPS    CA519213   6.190   5.951   1.674  0.0000  0.0000  0.0000
16821TPS    HA519214   6.222   6.038   1.729  0.0000  0.0000  0.0000
16821TPS    CA419215   6.167   5.830   1.742  0.0000  0.0000  0.0000
16821TPS    HA419216   6.186   5.824   1.849  0.0000  0.0000  0.0000
16821TPS    CA319217   6.120   5.718   1.672  0.0000  0.0000  0.0000
16821TPS    HA319218   6.103   5.625   1.726  0.0000  0.0000  0.0000
16822TPS    HA219219  -0.012   1.383   1.445  0.0000  0.0000  0.0000
16822TPS    CA219220   0.015   1.475   1.496  0.0000  0.0000  0.0000
16822TPS    CA119221   0.040   1.594   1.426  0.0000  0.0000  0.0000
16822TPS     Si19222   0.040   1.594   1.240  0.0000  0.0000  0.0000
16822TPS    CA619223   0.081   1.708   1.498  0.0000  0.0000  0.0000
16822TPS    HH619224   0.096   1.804   1.449  0.0000  0.0000  0.0000
16822TPS    CA519225   0.104   1.701   1.637  0.0000  0.0000  0.0000
16822TPS    HA519226   0.136   1.788   1.692  0.0000  0.0000  0.0000
16822TPS    CA419227   0.081   1.580   1.705  0.0000  0.0000  0.0000
16822TPS    HA419228   0.100   1.574   1.812  0.0000  0.0000  0.0000
16822TPS    CA319229   0.034   1.468   1.635  0.0000  0.0000  0.0000
16822TPS    HA319230   0.017   1.375   1.689  0.0000  0.0000  0.0000
16823TPS    HA219231   7.887   8.815   1.440  0.0000  0.0000  0.0000
16823TPS    CA219232   7.801   8.857   1.491  0.0000  0.0000  0.0000
16823TPS    CA119233   7.688   8.903   1.421  0.0000  0.0000  0.0000
16823TPS     Si19234   7.688   8.903   1.235  0.0000  0.0000  0.0000
16823TPS    CA619235   7.583   8.963   1.493  0.0000  0.0000  0.0000
16823TPS    HH619236   7.491   8.995   1.444  0.0000  0.0000  0.0000
16823TPS    CA519237   7.594   8.984   1.632  0.0000  0.0000  0.0000
16823TPS    HA519238   7.513   9.031   1.687  0.0000  0.0000  0.0000
16823TPS    CA419239   7.709   8.941   1.700  0.0000  0.0000  0.0000
16823TPS    HA419240   7.718   8.959   1.807  0.0000  0.0000  0.0000
16823TPS    CA319241   7.811   8.875   1.630  0.0000  0.0000  0.0000
16823TPS    HA319242   7.899   8.842   1.684  0.0000  0.0000  0.0000
16824TPS    HA219243   1.921   7.711   8.128  0.0000  0.0000  0.0000
16824TPS    CA219244   1.915   7.616   8.077  0.0000  0.0000  0.0000
16824TPS    CA119245   1.898   7.495   8.147  0.0000  0.0000  0.0000
16824TPS     Si19246   1.898   7.495   8.333  0.0000  0.0000  0.0000
16824TPS    CA619247   1.898   7.374   8.075  0.0000  0.0000  0.0000
16824TPS    HH619248   1.879   7.279   8.124  0.0000  0.0000  0.0000
16824TPS    CA519249   1.921   7.373   7.936  0.0000  0.0000  0.0000
16824TPS    HA519250   1.922   7.280   7.881  0.0000  0.0000  0.0000
16824TPS    CA419251   1.941   7.494   7.868  0.0000  0.0000  0.0000
16824TPS    HA419252   1.961   7.493   7.761  0.0000  0.0000  0.0000
16824TPS    CA319253   1.935   7.615   7.938  0.0000  0.0000  0.0000
16824TPS    HA319254   1.951   7.708   7.884  0.0000  0.0000  0.0000
16825TPS    HA219255   3.377   7.071   1.583  0.0000  0.0000  0.0000
16825TPS    CA219256   3.404   7.163   1.634  0.0000  0.0000  0.0000
16825TPS    CA119257   3.429   7.282   1.564  0.0000  0.0000  0.0000
16825TPS     Si19258   3.429   7.282   1.378  0.0000  0.0000  0.0000
16825TPS    CA619259   3.470   7.396   1.636  0.0000  0.0000  0.0000
16825TPS    HH619260   3.485   7.492   1.587  0.0000  0.0000  0.0000
16825TPS    CA519261   3.493   7.389   1.775  0.0000  0.0000  0.0000
16825TPS    HA519262   3.525   7.476   1.830  0.0000  0.0000  0.0000
16825TPS    CA419263   3.470   7.268   1.843  0.0000  0.0000  0.0000
16825TPS    HA419264   3.489   7.262   1.950  0.0000  0.0000  0.0000
16825TPS    CA319265   3.423   7.156   1.773  0.0000  0.0000  0.0000
16825TPS    HA319266   3.406   7.063   1.827  0.0000  0.0000  0.0000
16826TPS    HA219267   9.275   4.118   8.180  0.0000  0.0000  0.0000
16826TPS    CA219268   9.302   4.026   8.129  0.0000  0.0000  0.0000
16826TPS    CA119269   9.327   3.907   8.199  0.0000  0.0000  0.0000
16826TPS     Si19270   9.327   3.907   8.385  0.0000  0.0000  0.0000
16826TPS    CA619271   9.368   3.793   8.127  0.0000  0.0000  0.0000
16826TPS    HH619272   9.383   3.697   8.176  0.0000  0.0000  0.0000
16826TPS    CA519273   9.391   3.800   7.988  0.0000  0.0000  0.0000
16826TPS    HA519274   9.423   3.713   7.933  0.0000  0.0000  0.0000
16826TPS    CA419275   9.368   3.921   7.920  0.0000  0.0000  0.0000
16826TPS    HA419276   9.387   3.927   7.813  0.0000  0.0000  0.0000
16826TPS    CA319277   9.321   4.033   7.990  0.0000  0.0000  0.0000
16826TPS    HA319278   9.304   4.126   7.936  0.0000  0.0000  0.0000
16827TPS    HA219279  -0.008   9.212   8.122  0.0000  0.0000  0.0000
16827TPS    CA219280   0.019   9.120   8.071  0.0000  0.0000  0.0000
16827TPS    CA119281   0.044   9.001   8.141  0.0000  0.0000  0.0000
16827TPS     Si19282   0.044   9.001   8.327  0.0000  0.0000  0.0000
16827TPS    CA619283   0.085   8.887   8.069  0.0000  0.0000  0.0000
16827TPS    HH619284   0.100   8.791   8.118  0.0000  0.0000  0.0000
16827TPS    CA519285   0.108   8.894   7.930  0.0000  0.0000  0.0000
16827TPS    HA519286   0.140   8.807   7.875  0.0000  0.0000  0.0000
16827TPS    CA419287   0.085   9.015   7.862  0.0000  0.0000  0.0000
16827TPS    HA419288   0.104   9.021   7.755  0.0000  0.0000  0.0000
16827TPS    CA319289   0.038   9.127   7.932  0.0000  0.0000  0.0000
16827TPS    HA319290   0.021   9.220   7.878  0.0000  0.0000  0.0000
16828TPS    HA219291   3.238   6.069   1.587  0.0000  0.0000  0.0000
16828TPS    CA219292   3.265   6.161   1.638  0.0000  0.0000  0.0000
16828TPS    CA119293   3.290   6.280   1.568  0.0000  0.0000  0.0000
16828TPS     Si19294   3.290   6.280   1.382  0.0000  0.0000  0.0000
16828TPS    CA619295   3.331   6.394   1.640  0.0000  0.0000  0.0000
16828TPS    HH619296   3.346   6.490   1.591  0.0000  0.0000  0.0000
16828TPS    CA519297   3.354   6.387   1.779  0.0000  0.0000  0.0000
16828TPS    HA519298   3.386   6.474   1.834  0.0000  0.0000  0.0000
16828TPS    CA419299   3.331   6.266   1.847  0.0000  0.0000  0.0000
16828TPS    HA419300   3.350   6.260   1.954  0.0000  0.0000  0.0000
16828TPS    CA319301   3.284   6.154   1.777  0.0000  0.0000  0.0000
16828TPS    HA319302   3.267   6.061   1.831  0.0000  0.0000  0.0000
16829TPS    HA219303   9.615   0.431   1.525  0.0000  0.0000  0.0000
16829TPS    CA219304   9.576   0.518   1.576  0.0000  0.0000  0.0000
16829TPS    CA119305   9.519   0.626   1.506  0.0000  0.0000  0.0000
16829TPS     Si19306   9.519   0.626   1.320  0.0000  0.0000  0.0000
16829TPS    CA619307   9.477   0.740   1.578  0.0000  0.0000  0.0000
16829TPS    HH619308   9.427   0.823   1.529  0.0000  0.0000  0.0000
16829TPS    CA519309   9.499   0.748   1.717  0.0000  0.0000  0.0000
16829TPS    HA519310   9.468   0.837   1.772  0.0000  0.0000  0.0000
16829TPS    CA419311   9.559   0.642   1.785  0.0000  0.0000  0.0000
16829TPS    HA419312   9.578   0.649   1.892  0.0000  0.0000  0.0000
16829TPS    CA319313   9.595   0.526   1.715  0.0000  0.0000  0.0000
16829TPS    HA319314   9.642   0.443   1.769  0.0000  0.0000  0.0000
16830TPS    HA219315   0.768   4.951   1.556  0.0000  0.0000  0.0000
16830TPS    CA219316   0.795   5.043   1.607  0.0000  0.0000  0.0000
16830TPS    CA119317   0.820   5.162   1.537  0.0000  0.0000  0.0000
16830TPS     Si19318   0.820   5.162   1.351  0.0000  0.0000  0.0000
16830TPS    CA619319   0.861   5.276   1.609  0.0000  0.0000  0.0000
16830TPS    HH619320   0.876   5.372   1.560  0.0000  0.0000  0.0000
16830TPS    CA519321   0.884   5.269   1.748  0.0000  0.0000  0.0000
16830TPS    HA519322   0.916   5.356   1.803  0.0000  0.0000  0.0000
16830TPS    CA419323   0.861   5.148   1.816  0.0000  0.0000  0.0000
16830TPS    HA419324   0.880   5.142   1.923  0.0000  0.0000  0.0000
16830TPS    CA319325   0.814   5.036   1.746  0.0000  0.0000  0.0000
16830TPS    HA319326   0.797   4.943   1.800  0.0000  0.0000  0.0000
16831TPS    HA219327   0.401   0.049   1.462  0.0000  0.0000  0.0000
16831TPS    CA219328   0.362   0.136   1.513  0.0000  0.0000  0.0000
16831TPS    CA119329   0.305   0.244   1.443  0.0000  0.0000  0.0000
16831TPS     Si19330   0.305   0.244   1.257  0.0000  0.0000  0.0000
16831TPS    CA619331   0.263   0.358   1.515  0.0000  0.0000  0.0000
16831TPS    HH619332   0.213   0.441   1.466  0.0000  0.0000  0.0000
16831TPS    CA519333   0.285   0.366   1.654  0.0000  0.0000  0.0000
16831TPS    HA519334   0.254   0.455   1.709  0.0000  0.0000  0.0000
16831TPS    CA419335   0.345   0.260   1.722  0.0000  0.0000  0.0000
16831TPS    HA419336   0.364   0.267   1.829  0.0000  0.0000  0.0000
16831TPS    CA319337   0.381   0.144   1.652  0.0000  0.0000  0.0000
16831TPS    HA319338   0.428   0.061   1.706  0.0000  0.0000  0.0000
16832TPS    HA219339   7.481   3.620   8.017  0.0000  0.0000  0.0000
16832TPS    CA219340   7.508   3.528   7.966  0.0000  0.0000  0.0000
16832TPS    CA119341   7.533   3.409   8.036  0.0000  0.0000  0.0000
16832TPS     Si19342   7.533   3.409   8.222  0.0000  0.0000  0.0000
16832TPS    CA619343   7.574   3.295   7.964  0.0000  0.0000  0.0000
16832TPS    HH619344   7.589   3.199   8.013  0.0000  0.0000  0.0000
16832TPS    CA519345   7.597   3.302   7.825  0.0000  0.0000  0.0000
16832TPS    HA519346   7.629   3.215   7.770  0.0000  0.0000  0.0000
16832TPS    CA419347   7.574   3.423   7.757  0.0000  0.0000  0.0000
16832TPS    HA419348   7.593   3.429   7.650  0.0000  0.0000  0.0000
16832TPS    CA319349   7.527   3.535   7.827  0.0000  0.0000  0.0000
16832TPS    HA319350   7.510   3.628   7.773  0.0000  0.0000  0.0000
16833TPS    HA219351   4.399   7.217   8.165  0.0000  0.0000  0.0000
16833TPS    CA219352   4.426   7.125   8.114  0.0000  0.0000  0.0000
16833TPS    CA119353   4.451   7.006   8.184  0.0000  0.0000  0.0000
16833TPS     Si19354   4.451   7.006   8.370  0.0000  0.0000  0.0000
16833TPS    CA619355   4.492   6.892   8.112  0.0000  0.0000  0.0000
16833TPS    HH619356   4.507   6.796   8.161  0.0000  0.0000  0.0000
16833TPS    CA519357   4.515   6.899   7.973  0.0000  0.0000  0.0000
16833TPS    HA519358   4.547   6.812   7.918  0.0000  0.0000  0.0000
16833TPS    CA419359   4.492   7.020   7.905  0.0000  0.0000  0.0000
16833TPS    HA419360   4.511   7.026   7.798  0.0000  0.0000  0.0000
16833TPS    CA319361   4.445   7.132   7.975  0.0000  0.0000  0.0000
16833TPS    HA319362   4.428   7.225   7.921  0.0000  0.0000  0.0000
16834TPS    HA219363   7.122   1.151   1.476  0.0000  0.0000  0.0000
16834TPS    CA219364   7.036   1.193   1.527  0.0000  0.0000  0.0000
16834TPS    CA119365   6.923   1.239   1.457  0.0000  0.0000  0.0000
16834TPS     Si19366   6.923   1.239   1.271  0.0000  0.0000  0.0000
16834TPS    CA619367   6.818   1.299   1.529  0.0000  0.0000  0.0000
16834TPS    HH619368   6.726   1.331   1.480  0.0000  0.0000  0.0000
16834TPS    CA519369   6.829   1.320   1.668  0.0000  0.0000  0.0000
16834TPS    HA519370   6.748   1.367   1.723  0.0000  0.0000  0.0000
16834TPS    CA419371   6.944   1.277   1.736  0.0000  0.0000  0.0000
16834TPS    HA419372   6.953   1.295   1.843  0.0000  0.0000  0.0000
16834TPS    CA319373   7.046   1.211   1.666  0.0000  0.0000  0.0000
16834TPS    HA319374   7.134   1.178   1.720  0.0000  0.0000  0.0000
16835TPS    HA219375   0.978   5.408   8.170  0.0000  0.0000  0.0000
16835TPS    CA219376   1.005   5.316   8.119  0.0000  0.0000  0.0000
16835TPS    CA119377   1.030   5.197   8.189  0.0000  0.0000  0.0000
16835TPS     Si19378   1.030   5.197   8.375  0.0000  0.0000  0.0000
16835TPS    CA619379   1.071   5.083   8.117  0.0000  0.0000  0.0000
16835TPS    HH619380   1.086   4.987   8.166  0.0000  0.0000  0.0000
16835TPS    CA519381   1.094   5.090   7.978  0.0000  0.0000  0.0000
16835TPS    HA519382   1.126   5.003   7.923  0.0000  0.0000  0.0000
16835TPS    CA419383   1.071   5.211   7.910  0.0000  0.0000  0.0000
16835TPS    HA419384   1.090   5.217   7.803  0.0000  0.0000  0.0000
16835TPS    CA319385   1.024   5.323   7.980  0.0000  0.0000  0.0000
16835TPS    HA319386   1.007   5.416   7.926  0.0000  0.0000  0.0000
16836TPS    HA219387   1.091   3.837   8.082  0.0000  0.0000  0.0000
16836TPS    CA219388   1.118   3.745   8.031  0.0000  0.0000  0.0000
16836TPS    CA119389   1.143   3.626   8.101  0.0000  0.0000  0.0000
16836TPS     Si19390   1.143   3.626   8.287  0.0000  0.0000  0.0000
16836TPS    CA619391   1.184   3.512   8.029  0.0000  0.0000  0.0000
16836TPS    HH619392   1.199   3.416   8.078  0.0000  0.0000  0.0000
16836TPS    CA519393   1.207   3.519   7.890  0.0000  0.0000  0.0000
16836TPS    HA519394   1.239   3.432   7.835  0.0000  0.0000  0.0000
16836TPS    CA419395   1.184   3.640   7.822  0.0000  0.0000  0.0000
16836TPS    HA419396   1.203   3.646   7.715  0.0000  0.0000  0.0000
16836TPS    CA319397   1.137   3.752   7.892  0.0000  0.0000  0.0000
16836TPS    HA319398   1.120   3.845   7.838  0.0000  0.0000  0.0000
16837TPS    HA219399   1.092   6.340   8.151  0.0000  0.0000  0.0000
16837TPS    CA219400   1.119   6.248   8.100  0.0000  0.0000  0.0000
16837TPS    CA119401   1.144   6.129   8.170  0.0000  0.0000  0.0000
16837TPS     Si19402   1.144   6.129   8.356  0.0000  0.0000  0.0000
16837TPS    CA619403   1.185   6.015   8.098  0.0000  0.0000  0.0000
16837TPS    HH619404   1.200   5.919   8.147  0.0000  0.0000  0.0000
16837TPS    CA519405   1.208   6.022   7.959  0.0000  0.0000  0.0000
16837TPS    HA519406   1.240   5.935   7.904  0.0000  0.0000  0.0000
16837TPS    CA419407   1.185   6.143   7.891  0.0000  0.0000  0.0000
16837TPS    HA419408   1.204   6.149   7.784  0.0000  0.0000  0.0000
16837TPS    CA319409   1.138   6.255   7.961  0.0000  0.0000  0.0000
16837TPS    HA319410   1.121   6.348   7.907  0.0000  0.0000  0.0000
16838TPS    HA219411   8.806   8.000   8.248  0.0000  0.0000  0.0000
16838TPS    CA219412   8.833   7.908   8.197  0.0000  0.0000  0.0000
16838TPS    CA119413   8.858   7.789   8.267  0.0000  0.0000  0.0000
16838TPS     Si19414   8.858   7.789   8.453  0.0000  0.0000  0.0000
16838TPS    CA619415   8.899   7.675   8.195  0.0000  0.0000  0.0000
16838TPS    HH619416   8.914   7.579   8.244  0.0000  0.0000  0.0000
16838TPS    CA519417   8.922   7.682   8.056  0.0000  0.0000  0.0000
16838TPS    HA519418   8.954   7.595   8.001  0.0000  0.0000  0.0000
16838TPS    CA419419   8.899   7.803   7.988  0.0000  0.0000  0.0000
16838TPS    HA419420   8.918   7.809   7.881  0.0000  0.0000  0.0000
16838TPS    CA319421   8.852   7.915   8.058  0.0000  0.0000  0.0000
16838TPS    HA319422   8.835   8.008   8.004  0.0000  0.0000  0.0000
16839TPS    HA219423   0.332   8.644   1.554  0.0000  0.0000  0.0000
16839TPS    CA219424   0.359   8.736   1.605  0.0000  0.0000  0.0000
16839TPS    CA119425   0.384   8.855   1.535  0.0000  0.0000  0.0000
16839TPS     Si19426   0.384   8.855   1.349  0.0000  0.0000  0.0000
16839TPS    CA619427   0.425   8.969   1.607  0.0000  0.0000  0.0000
16839TPS    HH619428   0.440   9.065   1.558  0.0000  0.0000  0.0000
16839TPS    CA519429   0.448   8.962   1.746  0.0000  0.0000  0.0000
16839TPS    HA519430   0.480   9.049   1.801  0.0000  0.0000  0.0000
16839TPS    CA419431   0.425   8.841   1.814  0.0000  0.0000  0.0000
16839TPS    HA419432   0.444   8.835   1.921  0.0000  0.0000  0.0000
16839TPS    CA319433   0.378   8.729   1.744  0.0000  0.0000  0.0000
16839TPS    HA319434   0.361   8.636   1.798  0.0000  0.0000  0.0000
16840TPS    HA219435   0.547   0.971   8.000  0.0000  0.0000  0.0000
16840TPS    CA219436   0.574   0.879   7.949  0.0000  0.0000  0.0000
16840TPS    CA119437   0.599   0.760   8.019  0.0000  0.0000  0.0000
16840TPS     Si19438   0.599   0.760   8.205  0.0000  0.0000  0.0000
16840TPS    CA619439   0.640   0.646   7.947  0.0000  0.0000  0.0000
16840TPS    HH619440   0.655   0.550   7.996  0.0000  0.0000  0.0000
16840TPS    CA519441   0.663   0.653   7.808  0.0000  0.0000  0.0000
16840TPS    HA519442   0.695   0.566   7.753  0.0000  0.0000  0.0000
16840TPS    CA419443   0.640   0.774   7.740  0.0000  0.0000  0.0000
16840TPS    HA419444   0.659   0.780   7.633  0.0000  0.0000  0.0000
16840TPS    CA319445   0.593   0.886   7.810  0.0000  0.0000  0.0000
16840TPS    HA319446   0.576   0.979   7.756  0.0000  0.0000  0.0000
16841TPS    HA219447   3.620   4.697   7.962  0.0000  0.0000  0.0000
16841TPS    CA219448   3.647   4.605   7.911  0.0000  0.0000  0.0000
16841TPS    CA119449   3.672   4.486   7.981  0.0000  0.0000  0.0000
16841TPS     Si19450   3.672   4.486   8.167  0.0000  0.0000  0.0000
16841TPS    CA619451   3.713   4.372   7.909  0.0000  0.0000  0.0000
16841TPS    HH619452   3.728   4.276   7.958  0.0000  0.0000  0.0000
16841TPS    CA519453   3.736   4.379   7.770  0.0000  0.0000  0.0000
16841TPS    HA519454   3.768   4.292   7.715  0.0000  0.0000  0.0000
16841TPS    CA419455   3.713   4.500   7.702  0.0000  0.0000  0.0000
16841TPS    HA419456   3.732   4.506   7.595  0.0000  0.0000  0.0000
16841TPS    CA319457   3.666   4.612   7.772  0.0000  0.0000  0.0000
16841TPS    HA319458   3.649   4.705   7.718  0.0000  0.0000  0.0000
16842TPS    HA219459   6.761   2.244   8.166  0.0000  0.0000  0.0000
16842TPS    CA219460   6.788   2.152   8.115  0.0000  0.0000  0.0000
16842TPS    CA119461   6.813   2.033   8.185  0.0000  0.0000  0.0000
16842TPS     Si19462   6.813   2.033   8.371  0.0000  0.0000  0.0000
16842TPS    CA619463   6.854   1.919   8.113  0.0000  0.0000  0.0000
16842TPS    HH619464   6.869   1.823   8.162  0.0000  0.0000  0.0000
16842TPS    CA519465   6.877   1.926   7.974  0.0000  0.0000  0.0000
16842TPS    HA519466   6.909   1.839   7.919  0.0000  0.0000  0.0000
16842TPS    CA419467   6.854   2.047   7.906  0.0000  0.0000  0.0000
16842TPS    HA419468   6.873   2.053   7.799  0.0000  0.0000  0.0000
16842TPS    CA319469   6.807   2.159   7.976  0.0000  0.0000  0.0000
16842TPS    HA319470   6.790   2.252   7.922  0.0000  0.0000  0.0000
16843TPS    HA219471   1.790   2.064   8.082  0.0000  0.0000  0.0000
16843TPS    CA219472   1.817   1.972   8.031  0.0000  0.0000  0.0000
16843TPS    CA119473   1.842   1.853   8.101  0.0000  0.0000  0.0000
16843TPS     Si19474   1.842   1.853   8.287  0.0000  0.0000  0.0000
16843TPS    CA619475   1.883   1.739   8.029  0.0000  0.0000  0.0000
16843TPS    HH619476   1.898   1.643   8.078  0.0000  0.0000  0.0000
16843TPS    CA519477   1.906   1.746   7.890  0.0000  0.0000  0.0000
16843TPS    HA519478   1.938   1.659   7.835  0.0000  0.0000  0.0000
16843TPS    CA419479   1.883   1.867   7.822  0.0000  0.0000  0.0000
16843TPS    HA419480   1.902   1.873   7.715  0.0000  0.0000  0.0000
16843TPS    CA319481   1.836   1.979   7.892  0.0000  0.0000  0.0000
16843TPS    HA319482   1.819   2.072   7.838  0.0000  0.0000  0.0000
16844TPS    HA219483   1.018   5.145   1.384  0.0000  0.0000  0.0000
16844TPS    CA219484   1.045   5.237   1.435  0.0000  0.0000  0.0000
16844TPS    CA119485   1.070   5.356   1.365  0.0000  0.0000  0.0000
16844TPS     Si19486   1.070   5.356   1.179  0.0000  0.0000  0.0000
16844TPS    CA619487   1.111   5.470   1.437  0.0000  0.0000  0.0000
16844TPS    HH619488   1.126   5.566   1.388  0.0000  0.0000  0.0000
16844TPS    CA519489   1.134   5.463   1.576  0.0000  0.0000  0.0000
16844TPS    HA519490   1.166   5.550   1.631  0.0000  0.0000  0.0000
16844TPS    CA419491   1.111   5.342   1.644  0.0000  0.0000  0.0000
16844TPS    HA419492   1.130   5.336   1.751  0.0000  0.0000  0.0000
16844TPS    CA319493   1.064   5.230   1.574  0.0000  0.0000  0.0000
16844TPS    HA319494   1.047   5.137   1.628  0.0000  0.0000  0.0000
16845TPS    HA219495   2.979   7.216   8.046  0.0000  0.0000  0.0000
16845TPS    CA219496   3.006   7.124   7.995  0.0000  0.0000  0.0000
16845TPS    CA119497   3.031   7.005   8.065  0.0000  0.0000  0.0000
16845TPS     Si19498   3.031   7.005   8.251  0.0000  0.0000  0.0000
16845TPS    CA619499   3.072   6.891   7.993  0.0000  0.0000  0.0000
16845TPS    HH619500   3.087   6.795   8.042  0.0000  0.0000  0.0000
16845TPS    CA519501   3.095   6.898   7.854  0.0000  0.0000  0.0000
16845TPS    HA519502   3.127   6.811   7.799  0.0000  0.0000  0.0000
16845TPS    CA419503   3.072   7.019   7.786  0.0000  0.0000  0.0000
16845TPS    HA419504   3.091   7.025   7.679  0.0000  0.0000  0.0000
16845TPS    CA319505   3.025   7.131   7.856  0.0000  0.0000  0.0000
16845TPS    HA319506   3.008   7.224   7.802  0.0000  0.0000  0.0000
16846TPS    HA219507   0.959   7.311   1.395  0.0000  0.0000  0.0000
16846TPS    CA219508   0.986   7.403   1.446  0.0000  0.0000  0.0000
16846TPS    CA119509   1.011   7.522   1.376  0.0000  0.0000  0.0000
16846TPS     Si19510   1.011   7.522   1.190  0.0000  0.0000  0.0000
16846TPS    CA619511   1.052   7.636   1.448  0.0000  0.0000  0.0000
16846TPS    HH619512   1.067   7.732   1.399  0.0000  0.0000  0.0000
16846TPS    CA519513   1.075   7.629   1.587  0.0000  0.0000  0.0000
16846TPS    HA519514   1.107   7.716   1.642  0.0000  0.0000  0.0000
16846TPS    CA419515   1.052   7.508   1.655  0.0000  0.0000  0.0000
16846TPS    HA419516   1.071   7.502   1.762  0.0000  0.0000  0.0000
16846TPS    CA319517   1.005   7.396   1.585  0.0000  0.0000  0.0000
16846TPS    HA319518   0.988   7.303   1.639  0.0000  0.0000  0.0000
16847TPS    HA219519   5.024   7.768   1.573  0.0000  0.0000  0.0000
16847TPS    CA219520   5.018   7.863   1.624  0.0000  0.0000  0.0000
16847TPS    CA119521   5.001   7.984   1.554  0.0000  0.0000  0.0000
16847TPS     Si19522   5.001   7.984   1.368  0.0000  0.0000  0.0000
16847TPS    CA619523   5.001   8.105   1.626  0.0000  0.0000  0.0000
16847TPS    HH619524   4.982   8.200   1.577  0.0000  0.0000  0.0000
16847TPS    CA519525   5.024   8.106   1.765  0.0000  0.0000  0.0000
16847TPS    HA519526   5.025   8.199   1.820  0.0000  0.0000  0.0000
16847TPS    CA419527   5.044   7.985   1.833  0.0000  0.0000  0.0000
16847TPS    HA419528   5.064   7.986   1.940  0.0000  0.0000  0.0000
16847TPS    CA319529   5.038   7.864   1.763  0.0000  0.0000  0.0000
16847TPS    HA319530   5.054   7.771   1.817  0.0000  0.0000  0.0000
16848TPS    HA219531   3.953   3.404   8.100  0.0000  0.0000  0.0000
16848TPS    CA219532   3.980   3.312   8.049  0.0000  0.0000  0.0000
16848TPS    CA119533   4.005   3.193   8.119  0.0000  0.0000  0.0000
16848TPS     Si19534   4.005   3.193   8.305  0.0000  0.0000  0.0000
16848TPS    CA619535   4.046   3.079   8.047  0.0000  0.0000  0.0000
16848TPS    HH619536   4.061   2.983   8.096  0.0000  0.0000  0.0000
16848TPS    CA519537   4.069   3.086   7.908  0.0000  0.0000  0.0000
16848TPS    HA519538   4.101   2.999   7.853  0.0000  0.0000  0.0000
16848TPS    CA419539   4.046   3.207   7.840  0.0000  0.0000  0.0000
16848TPS    HA419540   4.065   3.213   7.733  0.0000  0.0000  0.0000
16848TPS    CA319541   3.999   3.319   7.910  0.0000  0.0000  0.0000
16848TPS    HA319542   3.982   3.412   7.856  0.0000  0.0000  0.0000
16849TPS    HA219543   0.985   4.678   8.126  0.0000  0.0000  0.0000
16849TPS    CA219544   1.012   4.586   8.075  0.0000  0.0000  0.0000
16849TPS    CA119545   1.037   4.467   8.145  0.0000  0.0000  0.0000
16849TPS     Si19546   1.037   4.467   8.331  0.0000  0.0000  0.0000
16849TPS    CA619547   1.078   4.353   8.073  0.0000  0.0000  0.0000
16849TPS    HH619548   1.093   4.257   8.122  0.0000  0.0000  0.0000
16849TPS    CA519549   1.101   4.360   7.934  0.0000  0.0000  0.0000
16849TPS    HA519550   1.133   4.273   7.879  0.0000  0.0000  0.0000
16849TPS    CA419551   1.078   4.481   7.866  0.0000  0.0000  0.0000
16849TPS    HA419552   1.097   4.487   7.759  0.0000  0.0000  0.0000
16849TPS    CA319553   1.031   4.593   7.936  0.0000  0.0000  0.0000
16849TPS    HA319554   1.014   4.686   7.882  0.0000  0.0000  0.0000
16850TPS    HA219555   8.816   6.735   8.221  0.0000  0.0000  0.0000
16850TPS    CA219556   8.843   6.643   8.170  0.0000  0.0000  0.0000
16850TPS    CA119557   8.868   6.524   8.240  0.0000  0.0000  0.0000
16850TPS     Si19558   8.868   6.524   8.426  0.0000  0.0000  0.0000
16850TPS    CA619559   8.909   6.410   8.168  0.0000  0.0000  0.0000
16850TPS    HH619560   8.924   6.314   8.217  0.0000  0.0000  0.0000
16850TPS    CA519561   8.932   6.417   8.029  0.0000  0.0000  0.0000
16850TPS    HA519562   8.964   6.330   7.974  0.0000  0.0000  0.0000
16850TPS    CA419563   8.909   6.538   7.961  0.0000  0.0000  0.0000
16850TPS    HA419564   8.928   6.544   7.854  0.0000  0.0000  0.0000
16850TPS    CA319565   8.862   6.650   8.031  0.0000  0.0000  0.0000
16850TPS    HA319566   8.845   6.743   7.977  0.0000  0.0000  0.0000
16851TPS    HA219567   2.028   4.242   1.537  0.0000  0.0000  0.0000
16851TPS    CA219568   2.055   4.334   1.588  0.0000  0.0000  0.0000
16851TPS    CA119569   2.080   4.453   1.518  0.0000  0.0000  0.0000
16851TPS     Si19570   2.080   4.453   1.332  0.0000  0.0000  0.0000
16851TPS    CA619571   2.121   4.567   1.590  0.0000  0.0000  0.0000
16851TPS    HH619572   2.136   4.663   1.541  0.0000  0.0000  0.0000
16851TPS    CA519573   2.144   4.560   1.729  0.0000  0.0000  0.0000
16851TPS    HA519574   2.176   4.647   1.784  0.0000  0.0000  0.0000
16851TPS    CA419575   2.121   4.439   1.797  0.0000  0.0000  0.0000
16851TPS    HA419576   2.140   4.433   1.904  0.0000  0.0000  0.0000
16851TPS    CA319577   2.074   4.327   1.727  0.0000  0.0000  0.0000
16851TPS    HA319578   2.057   4.234   1.781  0.0000  0.0000  0.0000
16852TPS    HA219579   0.060   2.768   8.075  0.0000  0.0000  0.0000
16852TPS    CA219580   0.087   2.676   8.024  0.0000  0.0000  0.0000
16852TPS    CA119581   0.112   2.557   8.094  0.0000  0.0000  0.0000
16852TPS     Si19582   0.112   2.557   8.280  0.0000  0.0000  0.0000
16852TPS    CA619583   0.153   2.443   8.022  0.0000  0.0000  0.0000
16852TPS    HH619584   0.168   2.347   8.071  0.0000  0.0000  0.0000
16852TPS    CA519585   0.176   2.450   7.883  0.0000  0.0000  0.0000
16852TPS    HA519586   0.208   2.363   7.828  0.0000  0.0000  0.0000
16852TPS    CA419587   0.153   2.571   7.815  0.0000  0.0000  0.0000
16852TPS    HA419588   0.172   2.577   7.708  0.0000  0.0000  0.0000
16852TPS    CA319589   0.106   2.683   7.885  0.0000  0.0000  0.0000
16852TPS    HA319590   0.089   2.776   7.831  0.0000  0.0000  0.0000
16853TPS    HA219591   6.105   8.903   8.159  0.0000  0.0000  0.0000
16853TPS    CA219592   6.132   8.811   8.108  0.0000  0.0000  0.0000
16853TPS    CA119593   6.157   8.692   8.178  0.0000  0.0000  0.0000
16853TPS     Si19594   6.157   8.692   8.364  0.0000  0.0000  0.0000
16853TPS    CA619595   6.198   8.578   8.106  0.0000  0.0000  0.0000
16853TPS    HH619596   6.213   8.482   8.155  0.0000  0.0000  0.0000
16853TPS    CA519597   6.221   8.585   7.967  0.0000  0.0000  0.0000
16853TPS    HA519598   6.253   8.498   7.912  0.0000  0.0000  0.0000
16853TPS    CA419599   6.198   8.706   7.899  0.0000  0.0000  0.0000
16853TPS    HA419600   6.217   8.712   7.792  0.0000  0.0000  0.0000
16853TPS    CA319601   6.151   8.818   7.969  0.0000  0.0000  0.0000
16853TPS    HA319602   6.134   8.911   7.915  0.0000  0.0000  0.0000
16854TPS    HA219603   2.088   0.862   1.505  0.0000  0.0000  0.0000
16854TPS    CA219604   2.115   0.954   1.556  0.0000  0.0000  0.0000
16854TPS    CA119605   2.140   1.073   1.486  0.0000  0.0000  0.0000
16854TPS     Si19606   2.140   1.073   1.300  0.0000  0.0000  0.0000
16854TPS    CA619607   2.181   1.187   1.558  0.0000  0.0000  0.0000
16854TPS    HH619608   2.196   1.283   1.509  0.0000  0.0000  0.0000
16854TPS    CA519609   2.204   1.180   1.697  0.0000  0.0000  0.0000
16854TPS    HA519610   2.236   1.267   1.752  0.0000  0.0000  0.0000
16854TPS    CA419611   2.181   1.059   1.765  0.0000  0.0000  0.0000
16854TPS    HA419612   2.200   1.053   1.872  0.0000  0.0000  0.0000
16854TPS    CA319613   2.134   0.947   1.695  0.0000  0.0000  0.0000
16854TPS    HA319614   2.117   0.854   1.749  0.0000  0.0000  0.0000
16855TPS    HA219615   5.032   8.281   1.573  0.0000  0.0000  0.0000
16855TPS    CA219616   4.966   8.349   1.624  0.0000  0.0000  0.0000
16855TPS    CA119617   4.875   8.431   1.554  0.0000  0.0000  0.0000
16855TPS     Si19618   4.875   8.431   1.368  0.0000  0.0000  0.0000
16855TPS    CA619619   4.797   8.524   1.626  0.0000  0.0000  0.0000
16855TPS    HH619620   4.722   8.585   1.577  0.0000  0.0000  0.0000
16855TPS    CA519621   4.814   8.539   1.765  0.0000  0.0000  0.0000
16855TPS    HA519622   4.755   8.611   1.820  0.0000  0.0000  0.0000
16855TPS    CA419623   4.907   8.460   1.833  0.0000  0.0000  0.0000
16855TPS    HA419624   4.922   8.473   1.940  0.0000  0.0000  0.0000
16855TPS    CA319625   4.981   8.363   1.763  0.0000  0.0000  0.0000
16855TPS    HA319626   5.053   8.301   1.817  0.0000  0.0000  0.0000
16856TPS    HA219627   3.652   5.397   8.167  0.0000  0.0000  0.0000
16856TPS    CA219628   3.646   5.302   8.116  0.0000  0.0000  0.0000
16856TPS    CA119629   3.629   5.181   8.186  0.0000  0.0000  0.0000
16856TPS     Si19630   3.629   5.181   8.372  0.0000  0.0000  0.0000
16856TPS    CA619631   3.629   5.060   8.114  0.0000  0.0000  0.0000
16856TPS    HH619632   3.610   4.965   8.163  0.0000  0.0000  0.0000
16856TPS    CA519633   3.652   5.059   7.975  0.0000  0.0000  0.0000
16856TPS    HA519634   3.653   4.966   7.920  0.0000  0.0000  0.0000
16856TPS    CA419635   3.672   5.180   7.907  0.0000  0.0000  0.0000
16856TPS    HA419636   3.692   5.179   7.800  0.0000  0.0000  0.0000
16856TPS    CA319637   3.666   5.301   7.977  0.0000  0.0000  0.0000
16856TPS    HA319638   3.682   5.394   7.923  0.0000  0.0000  0.0000
16857TPS    HA219639   3.580   7.764   8.177  0.0000  0.0000  0.0000
16857TPS    CA219640   3.607   7.672   8.126  0.0000  0.0000  0.0000
16857TPS    CA119641   3.632   7.553   8.196  0.0000  0.0000  0.0000
16857TPS     Si19642   3.632   7.553   8.382  0.0000  0.0000  0.0000
16857TPS    CA619643   3.673   7.439   8.124  0.0000  0.0000  0.0000
16857TPS    HH619644   3.688   7.343   8.173  0.0000  0.0000  0.0000
16857TPS    CA519645   3.696   7.446   7.985  0.0000  0.0000  0.0000
16857TPS    HA519646   3.728   7.359   7.930  0.0000  0.0000  0.0000
16857TPS    CA419647   3.673   7.567   7.917  0.0000  0.0000  0.0000
16857TPS    HA419648   3.692   7.573   7.810  0.0000  0.0000  0.0000
16857TPS    CA319649   3.626   7.679   7.987  0.0000  0.0000  0.0000
16857TPS    HA319650   3.609   7.772   7.933  0.0000  0.0000  0.0000
16858TPS    HA219651   8.463   8.077   1.426  0.0000  0.0000  0.0000
16858TPS    CA219652   8.490   8.169   1.477  0.0000  0.0000  0.0000
16858TPS    CA119653   8.515   8.288   1.407  0.0000  0.0000  0.0000
16858TPS     Si19654   8.515   8.288   1.221  0.0000  0.0000  0.0000
16858TPS    CA619655   8.556   8.402   1.479  0.0000  0.0000  0.0000
16858TPS    HH619656   8.571   8.498   1.430  0.0000  0.0000  0.0000
16858TPS    CA519657   8.579   8.395   1.618  0.0000  0.0000  0.0000
16858TPS    HA519658   8.611   8.482   1.673  0.0000  0.0000  0.0000
16858TPS    CA419659   8.556   8.274   1.686  0.0000  0.0000  0.0000
16858TPS    HA419660   8.575   8.268   1.793  0.0000  0.0000  0.0000
16858TPS    CA319661   8.509   8.162   1.616  0.0000  0.0000  0.0000
16858TPS    HA319662   8.492   8.069   1.670  0.0000  0.0000  0.0000
16859TPS    HA219663   0.460   7.174   8.100  0.0000  0.0000  0.0000
16859TPS    CA219664   0.487   7.082   8.049  0.0000  0.0000  0.0000
16859TPS    CA119665   0.512   6.963   8.119  0.0000  0.0000  0.0000
16859TPS     Si19666   0.512   6.963   8.305  0.0000  0.0000  0.0000
16859TPS    CA619667   0.553   6.849   8.047  0.0000  0.0000  0.0000
16859TPS    HH619668   0.568   6.753   8.096  0.0000  0.0000  0.0000
16859TPS    CA519669   0.576   6.856   7.908  0.0000  0.0000  0.0000
16859TPS    HA519670   0.608   6.769   7.853  0.0000  0.0000  0.0000
16859TPS    CA419671   0.553   6.977   7.840  0.0000  0.0000  0.0000
16859TPS    HA419672   0.572   6.983   7.733  0.0000  0.0000  0.0000
16859TPS    CA319673   0.506   7.089   7.910  0.0000  0.0000  0.0000
16859TPS    HA319674   0.489   7.182   7.856  0.0000  0.0000  0.0000
16860TPS    HA219675   6.593   3.440   8.182  0.0000  0.0000  0.0000
16860TPS    CA219676   6.686   3.417   8.131  0.0000  0.0000  0.0000
16860TPS    CA119677   6.802   3.379   8.201  0.0000  0.0000  0.0000
16860TPS     Si19678   6.802   3.379   8.387  0.0000  0.0000  0.0000
16860TPS    CA619679   6.921   3.357   8.129  0.0000  0.0000  0.0000
16860TPS    HH619680   7.012   3.323   8.178  0.0000  0.0000  0.0000
16860TPS    CA519681   6.926   3.381   7.990  0.0000  0.0000  0.0000
16860TPS    HA519682   7.018   3.365   7.935  0.0000  0.0000  0.0000
16860TPS    CA419683   6.811   3.421   7.922  0.0000  0.0000  0.0000
16860TPS    HA419684   6.815   3.441   7.815  0.0000  0.0000  0.0000
16860TPS    CA319685   6.690   3.437   7.992  0.0000  0.0000  0.0000
16860TPS    HA319686   6.601   3.468   7.938  0.0000  0.0000  0.0000
16861TPS    HA219687   3.057   2.591   8.253  0.0000  0.0000  0.0000
16861TPS    CA219688   3.084   2.499   8.202  0.0000  0.0000  0.0000
16861TPS    CA119689   3.109   2.380   8.272  0.0000  0.0000  0.0000
16861TPS     Si19690   3.109   2.380   8.458  0.0000  0.0000  0.0000
16861TPS    CA619691   3.150   2.266   8.200  0.0000  0.0000  0.0000
16861TPS    HH619692   3.165   2.170   8.249  0.0000  0.0000  0.0000
16861TPS    CA519693   3.173   2.273   8.061  0.0000  0.0000  0.0000
16861TPS    HA519694   3.205   2.186   8.006  0.0000  0.0000  0.0000
16861TPS    CA419695   3.150   2.394   7.993  0.0000  0.0000  0.0000
16861TPS    HA419696   3.169   2.400   7.886  0.0000  0.0000  0.0000
16861TPS    CA319697   3.103   2.506   8.063  0.0000  0.0000  0.0000
16861TPS    HA319698   3.086   2.599   8.009  0.0000  0.0000  0.0000
16862TPS    HA219699   6.452   1.721   1.521  0.0000  0.0000  0.0000
16862TPS    CA219700   6.479   1.813   1.572  0.0000  0.0000  0.0000
16862TPS    CA119701   6.504   1.932   1.502  0.0000  0.0000  0.0000
16862TPS     Si19702   6.504   1.932   1.316  0.0000  0.0000  0.0000
16862TPS    CA619703   6.545   2.046   1.574  0.0000  0.0000  0.0000
16862TPS    HH619704   6.560   2.142   1.525  0.0000  0.0000  0.0000
16862TPS    CA519705   6.568   2.039   1.713  0.0000  0.0000  0.0000
16862TPS    HA519706   6.600   2.126   1.768  0.0000  0.0000  0.0000
16862TPS    CA419707   6.545   1.918   1.781  0.0000  0.0000  0.0000
16862TPS    HA419708   6.564   1.912   1.888  0.0000  0.0000  0.0000
16862TPS    CA319709   6.498   1.806   1.711  0.0000  0.0000  0.0000
16862TPS    HA319710   6.481   1.713   1.765  0.0000  0.0000  0.0000
16863TPS    HA219711   7.746   5.653   8.237  0.0000  0.0000  0.0000
16863TPS    CA219712   7.773   5.561   8.186  0.0000  0.0000  0.0000
16863TPS    CA119713   7.798   5.442   8.256  0.0000  0.0000  0.0000
16863TPS     Si19714   7.798   5.442   8.442  0.0000  0.0000  0.0000
16863TPS    CA619715   7.839   5.328   8.184  0.0000  0.0000  0.0000
16863TPS    HH619716   7.854   5.232   8.233  0.0000  0.0000  0.0000
16863TPS    CA519717   7.862   5.335   8.045  0.0000  0.0000  0.0000
16863TPS    HA519718   7.894   5.248   7.990  0.0000  0.0000  0.0000
16863TPS    CA419719   7.839   5.456   7.977  0.0000  0.0000  0.0000
16863TPS    HA419720   7.858   5.462   7.870  0.0000  0.0000  0.0000
16863TPS    CA319721   7.792   5.568   8.047  0.0000  0.0000  0.0000
16863TPS    HA319722   7.775   5.661   7.993  0.0000  0.0000  0.0000
16864TPS    HA219723   2.945   0.953   8.037  0.0000  0.0000  0.0000
16864TPS    CA219724   2.972   0.861   7.986  0.0000  0.0000  0.0000
16864TPS    CA119725   2.997   0.742   8.056  0.0000  0.0000  0.0000
16864TPS     Si19726   2.997   0.742   8.242  0.0000  0.0000  0.0000
16864TPS    CA619727   3.038   0.628   7.984  0.0000  0.0000  0.0000
16864TPS    HH619728   3.053   0.532   8.033  0.0000  0.0000  0.0000
16864TPS    CA519729   3.061   0.635   7.845  0.0000  0.0000  0.0000
16864TPS    HA519730   3.093   0.548   7.790  0.0000  0.0000  0.0000
16864TPS    CA419731   3.038   0.756   7.777  0.0000  0.0000  0.0000
16864TPS    HA419732   3.057   0.762   7.670  0.0000  0.0000  0.0000
16864TPS    CA319733   2.991   0.868   7.847  0.0000  0.0000  0.0000
16864TPS    HA319734   2.974   0.961   7.793  0.0000  0.0000  0.0000
16865TPS    HA219735   6.114   6.360   1.590  0.0000  0.0000  0.0000
16865TPS    CA219736   6.141   6.452   1.641  0.0000  0.0000  0.0000
16865TPS    CA119737   6.166   6.571   1.571  0.0000  0.0000  0.0000
16865TPS     Si19738   6.166   6.571   1.385  0.0000  0.0000  0.0000
16865TPS    CA619739   6.207   6.685   1.643  0.0000  0.0000  0.0000
16865TPS    HH619740   6.222   6.781   1.594  0.0000  0.0000  0.0000
16865TPS    CA519741   6.230   6.678   1.782  0.0000  0.0000  0.0000
16865TPS    HA519742   6.262   6.765   1.837  0.0000  0.0000  0.0000
16865TPS    CA419743   6.207   6.557   1.850  0.0000  0.0000  0.0000
16865TPS    HA419744   6.226   6.551   1.957  0.0000  0.0000  0.0000
16865TPS    CA319745   6.160   6.445   1.780  0.0000  0.0000  0.0000
16865TPS    HA319746   6.143   6.352   1.834  0.0000  0.0000  0.0000
16866TPS    HA219747   2.214   5.753   1.573  0.0000  0.0000  0.0000
16866TPS    CA219748   2.241   5.845   1.624  0.0000  0.0000  0.0000
16866TPS    CA119749   2.266   5.964   1.554  0.0000  0.0000  0.0000
16866TPS     Si19750   2.266   5.964   1.368  0.0000  0.0000  0.0000
16866TPS    CA619751   2.307   6.078   1.626  0.0000  0.0000  0.0000
16866TPS    HH619752   2.322   6.174   1.577  0.0000  0.0000  0.0000
16866TPS    CA519753   2.330   6.071   1.765  0.0000  0.0000  0.0000
16866TPS    HA519754   2.362   6.158   1.820  0.0000  0.0000  0.0000
16866TPS    CA419755   2.307   5.950   1.833  0.0000  0.0000  0.0000
16866TPS    HA419756   2.326   5.944   1.940  0.0000  0.0000  0.0000
16866TPS    CA319757   2.260   5.838   1.763  0.0000  0.0000  0.0000
16866TPS    HA319758   2.243   5.745   1.817  0.0000  0.0000  0.0000
16867TPS    HA219759   4.674   7.026   1.548  0.0000  0.0000  0.0000
16867TPS    CA219760   4.701   7.118   1.599  0.0000  0.0000  0.0000
16867TPS    CA119761   4.726   7.237   1.529  0.0000  0.0000  0.0000
16867TPS     Si19762   4.726   7.237   1.343  0.0000  0.0000  0.0000
16867TPS    CA619763   4.767   7.351   1.601  0.0000  0.0000  0.0000
16867TPS    HH619764   4.782   7.447   1.552  0.0000  0.0000  0.0000
16867TPS    CA519765   4.790   7.344   1.740  0.0000  0.0000  0.0000
16867TPS    HA519766   4.822   7.431   1.795  0.0000  0.0000  0.0000
16867TPS    CA419767   4.767   7.223   1.808  0.0000  0.0000  0.0000
16867TPS    HA419768   4.786   7.217   1.915  0.0000  0.0000  0.0000
16867TPS    CA319769   4.720   7.111   1.738  0.0000  0.0000  0.0000
16867TPS    HA319770   4.703   7.018   1.792  0.0000  0.0000  0.0000
16868TPS    HA219771   2.956   5.819   8.042  0.0000  0.0000  0.0000
16868TPS    CA219772   2.983   5.727   7.991  0.0000  0.0000  0.0000
16868TPS    CA119773   3.008   5.608   8.061  0.0000  0.0000  0.0000
16868TPS     Si19774   3.008   5.608   8.247  0.0000  0.0000  0.0000
16868TPS    CA619775   3.049   5.494   7.989  0.0000  0.0000  0.0000
16868TPS    HH619776   3.064   5.398   8.038  0.0000  0.0000  0.0000
16868TPS    CA519777   3.072   5.501   7.850  0.0000  0.0000  0.0000
16868TPS    HA519778   3.104   5.414   7.795  0.0000  0.0000  0.0000
16868TPS    CA419779   3.049   5.622   7.782  0.0000  0.0000  0.0000
16868TPS    HA419780   3.068   5.628   7.675  0.0000  0.0000  0.0000
16868TPS    CA319781   3.002   5.734   7.852  0.0000  0.0000  0.0000
16868TPS    HA319782   2.985   5.827   7.798  0.0000  0.0000  0.0000
16869TPS    HA219783   8.755   0.598   1.416  0.0000  0.0000  0.0000
16869TPS    CA219784   8.848   0.621   1.467  0.0000  0.0000  0.0000
16869TPS    CA119785   8.964   0.659   1.397  0.0000  0.0000  0.0000
16869TPS     Si19786   8.964   0.659   1.211  0.0000  0.0000  0.0000
16869TPS    CA619787   9.083   0.681   1.469  0.0000  0.0000  0.0000
16869TPS    HH619788   9.174   0.715   1.420  0.0000  0.0000  0.0000
16869TPS    CA519789   9.088   0.657   1.608  0.0000  0.0000  0.0000
16869TPS    HA519790   9.180   0.673   1.663  0.0000  0.0000  0.0000
16869TPS    CA419791   8.973   0.617   1.676  0.0000  0.0000  0.0000
16869TPS    HA419792   8.977   0.597   1.783  0.0000  0.0000  0.0000
16869TPS    CA319793   8.852   0.601   1.606  0.0000  0.0000  0.0000
16869TPS    HA319794   8.763   0.570   1.660  0.0000  0.0000  0.0000
16870TPS    HA219795   8.292   7.264   1.466  0.0000  0.0000  0.0000
16870TPS    CA219796   8.319   7.356   1.517  0.0000  0.0000  0.0000
16870TPS    CA119797   8.344   7.475   1.447  0.0000  0.0000  0.0000
16870TPS     Si19798   8.344   7.475   1.261  0.0000  0.0000  0.0000
16870TPS    CA619799   8.385   7.589   1.519  0.0000  0.0000  0.0000
16870TPS    HH619800   8.400   7.685   1.470  0.0000  0.0000  0.0000
16870TPS    CA519801   8.408   7.582   1.658  0.0000  0.0000  0.0000
16870TPS    HA519802   8.440   7.669   1.713  0.0000  0.0000  0.0000
16870TPS    CA419803   8.385   7.461   1.726  0.0000  0.0000  0.0000
16870TPS    HA419804   8.404   7.455   1.833  0.0000  0.0000  0.0000
16870TPS    CA319805   8.338   7.349   1.656  0.0000  0.0000  0.0000
16870TPS    HA319806   8.321   7.256   1.710  0.0000  0.0000  0.0000
16871TPS    HA219807   6.797   0.901   8.113  0.0000  0.0000  0.0000
16871TPS    CA219808   6.824   0.809   8.062  0.0000  0.0000  0.0000
16871TPS    CA119809   6.849   0.690   8.132  0.0000  0.0000  0.0000
16871TPS     Si19810   6.849   0.690   8.318  0.0000  0.0000  0.0000
16871TPS    CA619811   6.890   0.576   8.060  0.0000  0.0000  0.0000
16871TPS    HH619812   6.905   0.480   8.109  0.0000  0.0000  0.0000
16871TPS    CA519813   6.913   0.583   7.921  0.0000  0.0000  0.0000
16871TPS    HA519814   6.945   0.496   7.866  0.0000  0.0000  0.0000
16871TPS    CA419815   6.890   0.704   7.853  0.0000  0.0000  0.0000
16871TPS    HA419816   6.909   0.710   7.746  0.0000  0.0000  0.0000
16871TPS    CA319817   6.843   0.816   7.923  0.0000  0.0000  0.0000
16871TPS    HA319818   6.826   0.909   7.869  0.0000  0.0000  0.0000
16872TPS    HA219819   0.428   0.222   8.091  0.0000  0.0000  0.0000
16872TPS    CA219820   0.455   0.130   8.040  0.0000  0.0000  0.0000
16872TPS    CA119821   0.480   0.011   8.110  0.0000  0.0000  0.0000
16872TPS     Si19822   0.480   0.011   8.296  0.0000  0.0000  0.0000
16872TPS    CA619823   0.521  -0.103   8.038  0.0000  0.0000  0.0000
16872TPS    HH619824   0.536  -0.199   8.087  0.0000  0.0000  0.0000
16872TPS    CA519825   0.544  -0.096   7.899  0.0000  0.0000  0.0000
16872TPS    HA519826   0.576  -0.183   7.844  0.0000  0.0000  0.0000
16872TPS    CA419827   0.521   0.025   7.831  0.0000  0.0000  0.0000
16872TPS    HA419828   0.540   0.031   7.724  0.0000  0.0000  0.0000
16872TPS    CA319829   0.474   0.137   7.901  0.0000  0.0000  0.0000
16872TPS    HA319830   0.457   0.230   7.847  0.0000  0.0000  0.0000
16873TPS    HA219831   0.381   3.862   8.161  0.0000  0.0000  0.0000
16873TPS    CA219832   0.408   3.770   8.110  0.0000  0.0000  0.0000
16873TPS    CA119833   0.433   3.651   8.180  0.0000  0.0000  0.0000
16873TPS     Si19834   0.433   3.651   8.366  0.0000  0.0000  0.0000
16873TPS    CA619835   0.474   3.537   8.108  0.0000  0.0000  0.0000
16873TPS    HH619836   0.489   3.441   8.157  0.0000  0.0000  0.0000
16873TPS    CA519837   0.497   3.544   7.969  0.0000  0.0000  0.0000
16873TPS    HA519838   0.529   3.457   7.914  0.0000  0.0000  0.0000
16873TPS    CA419839   0.474   3.665   7.901  0.0000  0.0000  0.0000
16873TPS    HA419840   0.493   3.671   7.794  0.0000  0.0000  0.0000
16873TPS    CA319841   0.427   3.777   7.971  0.0000  0.0000  0.0000
16873TPS    HA319842   0.410   3.870   7.917  0.0000  0.0000  0.0000
16874TPS    HA219843   6.474   8.436   1.375  0.0000  0.0000  0.0000
16874TPS    CA219844   6.501   8.528   1.426  0.0000  0.0000  0.0000
16874TPS    CA119845   6.526   8.647   1.356  0.0000  0.0000  0.0000
16874TPS     Si19846   6.526   8.647   1.170  0.0000  0.0000  0.0000
16874TPS    CA619847   6.567   8.761   1.428  0.0000  0.0000  0.0000
16874TPS    HH619848   6.582   8.857   1.379  0.0000  0.0000  0.0000
16874TPS    CA519849   6.590   8.754   1.567  0.0000  0.0000  0.0000
16874TPS    HA519850   6.622   8.841   1.622  0.0000  0.0000  0.0000
16874TPS    CA419851   6.567   8.633   1.635  0.0000  0.0000  0.0000
16874TPS    HA419852   6.586   8.627   1.742  0.0000  0.0000  0.0000
16874TPS    CA319853   6.520   8.521   1.565  0.0000  0.0000  0.0000
16874TPS    HA319854   6.503   8.428   1.619  0.0000  0.0000  0.0000
16875TPS    HA219855   9.300   8.208   1.484  0.0000  0.0000  0.0000
16875TPS    CA219856   9.294   8.303   1.535  0.0000  0.0000  0.0000
16875TPS    CA119857   9.277   8.424   1.465  0.0000  0.0000  0.0000
16875TPS     Si19858   9.277   8.424   1.279  0.0000  0.0000  0.0000
16875TPS    CA619859   9.277   8.545   1.537  0.0000  0.0000  0.0000
16875TPS    HH619860   9.258   8.640   1.488  0.0000  0.0000  0.0000
16875TPS    CA519861   9.300   8.546   1.676  0.0000  0.0000  0.0000
16875TPS    HA519862   9.301   8.639   1.731  0.0000  0.0000  0.0000
16875TPS    CA419863   9.320   8.425   1.744  0.0000  0.0000  0.0000
16875TPS    HA419864   9.340   8.426   1.851  0.0000  0.0000  0.0000
16875TPS    CA319865   9.314   8.304   1.674  0.0000  0.0000  0.0000
16875TPS    HA319866   9.330   8.211   1.728  0.0000  0.0000  0.0000
16876TPS    HA219867   4.375   0.953   7.964  0.0000  0.0000  0.0000
16876TPS    CA219868   4.402   0.861   7.913  0.0000  0.0000  0.0000
16876TPS    CA119869   4.427   0.742   7.983  0.0000  0.0000  0.0000
16876TPS     Si19870   4.427   0.742   8.169  0.0000  0.0000  0.0000
16876TPS    CA619871   4.468   0.628   7.911  0.0000  0.0000  0.0000
16876TPS    HH619872   4.483   0.532   7.960  0.0000  0.0000  0.0000
16876TPS    CA519873   4.491   0.635   7.772  0.0000  0.0000  0.0000
16876TPS    HA519874   4.523   0.548   7.717  0.0000  0.0000  0.0000
16876TPS    CA419875   4.468   0.756   7.704  0.0000  0.0000  0.0000
16876TPS    HA419876   4.487   0.762   7.597  0.0000  0.0000  0.0000
16876TPS    CA319877   4.421   0.868   7.774  0.0000  0.0000  0.0000
16876TPS    HA319878   4.404   0.961   7.720  0.0000  0.0000  0.0000
16877TPS    HA219879   4.838   4.833   1.279  0.0000  0.0000  0.0000
16877TPS    CA219880   4.865   4.925   1.330  0.0000  0.0000  0.0000
16877TPS    CA119881   4.890   5.044   1.260  0.0000  0.0000  0.0000
16877TPS     Si19882   4.890   5.044   1.074  0.0000  0.0000  0.0000
16877TPS    CA619883   4.931   5.158   1.332  0.0000  0.0000  0.0000
16877TPS    HH619884   4.946   5.254   1.283  0.0000  0.0000  0.0000
16877TPS    CA519885   4.954   5.151   1.471  0.0000  0.0000  0.0000
16877TPS    HA519886   4.986   5.238   1.526  0.0000  0.0000  0.0000
16877TPS    CA419887   4.931   5.030   1.539  0.0000  0.0000  0.0000
16877TPS    HA419888   4.950   5.024   1.646  0.0000  0.0000  0.0000
16877TPS    CA319889   4.884   4.918   1.469  0.0000  0.0000  0.0000
16877TPS    HA319890   4.867   4.825   1.523  0.0000  0.0000  0.0000
16878TPS    HA219891   9.322   4.228   8.099  0.0000  0.0000  0.0000
16878TPS    CA219892   9.243   4.281   8.048  0.0000  0.0000  0.0000
16878TPS    CA119893   9.147   4.356   8.118  0.0000  0.0000  0.0000
16878TPS     Si19894   9.147   4.356   8.304  0.0000  0.0000  0.0000
16878TPS    CA619895   9.042   4.417   8.046  0.0000  0.0000  0.0000
16878TPS    HH619896   8.969   4.480   8.095  0.0000  0.0000  0.0000
16878TPS    CA519897   9.030   4.397   7.907  0.0000  0.0000  0.0000
16878TPS    HA519898   8.949   4.443   7.852  0.0000  0.0000  0.0000
16878TPS    CA419899   9.124   4.319   7.839  0.0000  0.0000  0.0000
16878TPS    HA419900   9.114   4.302   7.732  0.0000  0.0000  0.0000
16878TPS    CA319901   9.233   4.263   7.909  0.0000  0.0000  0.0000
16878TPS    HA319902   9.305   4.203   7.855  0.0000  0.0000  0.0000
16879TPS    HA219903   2.560   9.215   8.204  0.0000  0.0000  0.0000
16879TPS    CA219904   2.587   9.123   8.153  0.0000  0.0000  0.0000
16879TPS    CA119905   2.612   9.004   8.223  0.0000  0.0000  0.0000
16879TPS     Si19906   2.612   9.004   8.409  0.0000  0.0000  0.0000
16879TPS    CA619907   2.653   8.890   8.151  0.0000  0.0000  0.0000
16879TPS    HH619908   2.668   8.794   8.200  0.0000  0.0000  0.0000
16879TPS    CA519909   2.676   8.897   8.012  0.0000  0.0000  0.0000
16879TPS    HA519910   2.708   8.810   7.957  0.0000  0.0000  0.0000
16879TPS    CA419911   2.653   9.018   7.944  0.0000  0.0000  0.0000
16879TPS    HA419912   2.672   9.024   7.837  0.0000  0.0000  0.0000
16879TPS    CA319913   2.606   9.130   8.014  0.0000  0.0000  0.0000
16879TPS    HA319914   2.589   9.223   7.960  0.0000  0.0000  0.0000
16880TPS    HA219915   6.249   1.946   1.531  0.0000  0.0000  0.0000
16880TPS    CA219916   6.276   2.038   1.582  0.0000  0.0000  0.0000
16880TPS    CA119917   6.301   2.157   1.512  0.0000  0.0000  0.0000
16880TPS     Si19918   6.301   2.157   1.326  0.0000  0.0000  0.0000
16880TPS    CA619919   6.342   2.271   1.584  0.0000  0.0000  0.0000
16880TPS    HH619920   6.357   2.367   1.535  0.0000  0.0000  0.0000
16880TPS    CA519921   6.365   2.264   1.723  0.0000  0.0000  0.0000
16880TPS    HA519922   6.397   2.351   1.778  0.0000  0.0000  0.0000
16880TPS    CA419923   6.342   2.143   1.791  0.0000  0.0000  0.0000
16880TPS    HA419924   6.361   2.137   1.898  0.0000  0.0000  0.0000
16880TPS    CA319925   6.295   2.031   1.721  0.0000  0.0000  0.0000
16880TPS    HA319926   6.278   1.938   1.775  0.0000  0.0000  0.0000
16881TPS    HA219927   6.858   7.391   8.137  0.0000  0.0000  0.0000
16881TPS    CA219928   6.885   7.299   8.086  0.0000  0.0000  0.0000
16881TPS    CA119929   6.910   7.180   8.156  0.0000  0.0000  0.0000
16881TPS     Si19930   6.910   7.180   8.342  0.0000  0.0000  0.0000
16881TPS    CA619931   6.951   7.066   8.084  0.0000  0.0000  0.0000
16881TPS    HH619932   6.966   6.970   8.133  0.0000  0.0000  0.0000
16881TPS    CA519933   6.974   7.073   7.945  0.0000  0.0000  0.0000
16881TPS    HA519934   7.006   6.986   7.890  0.0000  0.0000  0.0000
16881TPS    CA419935   6.951   7.194   7.877  0.0000  0.0000  0.0000
16881TPS    HA419936   6.970   7.200   7.770  0.0000  0.0000  0.0000
16881TPS    CA319937   6.904   7.306   7.947  0.0000  0.0000  0.0000
16881TPS    HA319938   6.887   7.399   7.893  0.0000  0.0000  0.0000
16882TPS    HA219939   1.365   6.757   1.582  0.0000  0.0000  0.0000
16882TPS    CA219940   1.392   6.849   1.633  0.0000  0.0000  0.0000
16882TPS    CA119941   1.417   6.968   1.563  0.0000  0.0000  0.0000
16882TPS     Si19942   1.417   6.968   1.377  0.0000  0.0000  0.0000
16882TPS    CA619943   1.458   7.082   1.635  0.0000  0.0000  0.0000
16882TPS    HH619944   1.473   7.178   1.586  0.0000  0.0000  0.0000
16882TPS    CA519945   1.481   7.075   1.774  0.0000  0.0000  0.0000
16882TPS    HA519946   1.513   7.162   1.829  0.0000  0.0000  0.0000
16882TPS    CA419947   1.458   6.954   1.842  0.0000  0.0000  0.0000
16882TPS    HA419948   1.477   6.948   1.949  0.0000  0.0000  0.0000
16882TPS    CA319949   1.411   6.842   1.772  0.0000  0.0000  0.0000
16882TPS    HA319950   1.394   6.749   1.826  0.0000  0.0000  0.0000
16883TPS    HA219951   1.307   2.041   1.623  0.0000  0.0000  0.0000
16883TPS    CA219952   1.334   2.133   1.674  0.0000  0.0000  0.0000
16883TPS    CA119953   1.359   2.252   1.604  0.0000  0.0000  0.0000
16883TPS     Si19954   1.359   2.252   1.418  0.0000  0.0000  0.0000
16883TPS    CA619955   1.400   2.366   1.676  0.0000  0.0000  0.0000
16883TPS    HH619956   1.415   2.462   1.627  0.0000  0.0000  0.0000
16883TPS    CA519957   1.423   2.359   1.815  0.0000  0.0000  0.0000
16883TPS    HA519958   1.455   2.446   1.870  0.0000  0.0000  0.0000
16883TPS    CA419959   1.400   2.238   1.883  0.0000  0.0000  0.0000
16883TPS    HA419960   1.419   2.232   1.990  0.0000  0.0000  0.0000
16883TPS    CA319961   1.353   2.126   1.813  0.0000  0.0000  0.0000
16883TPS    HA319962   1.336   2.033   1.867  0.0000  0.0000  0.0000
16884TPS    HA219963   8.431   8.857   1.588  0.0000  0.0000  0.0000
16884TPS    CA219964   8.458   8.949   1.639  0.0000  0.0000  0.0000
16884TPS    CA119965   8.483   9.068   1.569  0.0000  0.0000  0.0000
16884TPS     Si19966   8.483   9.068   1.383  0.0000  0.0000  0.0000
16884TPS    CA619967   8.524   9.182   1.641  0.0000  0.0000  0.0000
16884TPS    HH619968   8.539   9.278   1.592  0.0000  0.0000  0.0000
16884TPS    CA519969   8.547   9.175   1.780  0.0000  0.0000  0.0000
16884TPS    HA519970   8.579   9.262   1.835  0.0000  0.0000  0.0000
16884TPS    CA419971   8.524   9.054   1.848  0.0000  0.0000  0.0000
16884TPS    HA419972   8.543   9.048   1.955  0.0000  0.0000  0.0000
16884TPS    CA319973   8.477   8.942   1.778  0.0000  0.0000  0.0000
16884TPS    HA319974   8.460   8.849   1.832  0.0000  0.0000  0.0000
16885TPS    HA219975   1.370   0.931   8.176  0.0000  0.0000  0.0000
16885TPS    CA219976   1.397   0.839   8.125  0.0000  0.0000  0.0000
16885TPS    CA119977   1.422   0.720   8.195  0.0000  0.0000  0.0000
16885TPS     Si19978   1.422   0.720   8.381  0.0000  0.0000  0.0000
16885TPS    CA619979   1.463   0.606   8.123  0.0000  0.0000  0.0000
16885TPS    HH619980   1.478   0.510   8.172  0.0000  0.0000  0.0000
16885TPS    CA519981   1.486   0.613   7.984  0.0000  0.0000  0.0000
16885TPS    HA519982   1.518   0.526   7.929  0.0000  0.0000  0.0000
16885TPS    CA419983   1.463   0.734   7.916  0.0000  0.0000  0.0000
16885TPS    HA419984   1.482   0.740   7.809  0.0000  0.0000  0.0000
16885TPS    CA319985   1.416   0.846   7.986  0.0000  0.0000  0.0000
16885TPS    HA319986   1.399   0.939   7.932  0.0000  0.0000  0.0000
16886TPS    HA219987   0.447   5.397   8.201  0.0000  0.0000  0.0000
16886TPS    CA219988   0.474   5.305   8.150  0.0000  0.0000  0.0000
16886TPS    CA119989   0.499   5.186   8.220  0.0000  0.0000  0.0000
16886TPS     Si19990   0.499   5.186   8.406  0.0000  0.0000  0.0000
16886TPS    CA619991   0.540   5.072   8.148  0.0000  0.0000  0.0000
16886TPS    HH619992   0.555   4.976   8.197  0.0000  0.0000  0.0000
16886TPS    CA519993   0.563   5.079   8.009  0.0000  0.0000  0.0000
16886TPS    HA519994   0.595   4.992   7.954  0.0000  0.0000  0.0000
16886TPS    CA419995   0.540   5.200   7.941  0.0000  0.0000  0.0000
16886TPS    HA419996   0.559   5.206   7.834  0.0000  0.0000  0.0000
16886TPS    CA319997   0.493   5.312   8.011  0.0000  0.0000  0.0000
16886TPS    HA319998   0.476   5.405   7.957  0.0000  0.0000  0.0000
16887TPS    HA219999   5.896   4.466   1.523  0.0000  0.0000  0.0000
16887TPS    CA220000   5.923   4.558   1.574  0.0000  0.0000  0.0000
16887TPS    CA120001   5.948   4.677   1.504  0.0000  0.0000  0.0000
16887TPS     Si20002   5.948   4.677   1.318  0.0000  0.0000  0.0000
16887TPS    CA620003   5.989   4.791   1.576  0.0000  0.0000  0.0000
16887TPS    HH620004   6.004   4.887   1.527  0.0000  0.0000  0.0000
16887TPS    CA520005   6.012   4.784   1.715  0.0000  0.0000  0.0000
16887TPS    HA520006   6.044   4.871   1.770  0.0000  0.0000  0.0000
16887TPS    CA420007   5.989   4.663   1.783  0.0000  0.0000  0.0000
16887TPS    HA420008   6.008   4.657   1.890  0.0000  0.0000  0.0000
16887TPS    CA320009   5.942   4.551   1.713  0.0000  0.0000  0.0000
16887TPS    HA320010   5.925   4.458   1.767  0.0000  0.0000  0.0000
16888TPS    HA220011   0.548   3.414   1.503  0.0000  0.0000  0.0000
16888TPS    CA220012   0.575   3.506   1.554  0.0000  0.0000  0.0000
16888TPS    CA120013   0.600   3.625   1.484  0.0000  0.0000  0.0000
16888TPS     Si20014   0.600   3.625   1.298  0.0000  0.0000  0.0000
16888TPS    CA620015   0.641   3.739   1.556  0.0000  0.0000  0.0000
16888TPS    HH620016   0.656   3.835   1.507  0.0000  0.0000  0.0000
16888TPS    CA520017   0.664   3.732   1.695  0.0000  0.0000  0.0000
16888TPS    HA520018   0.696   3.819   1.750  0.0000  0.0000  0.0000
16888TPS    CA420019   0.641   3.611   1.763  0.0000  0.0000  0.0000
16888TPS    HA420020   0.660   3.605   1.870  0.0000  0.0000  0.0000
16888TPS    CA320021   0.594   3.499   1.693  0.0000  0.0000  0.0000
16888TPS    HA320022   0.577   3.406   1.747  0.0000  0.0000  0.0000
16889TPS    HA220023   5.839   2.949   1.611  0.0000  0.0000  0.0000
16889TPS    CA220024   5.866   3.041   1.662  0.0000  0.0000  0.0000
16889TPS    CA120025   5.891   3.160   1.592  0.0000  0.0000  0.0000
16889TPS     Si20026   5.891   3.160   1.406  0.0000  0.0000  0.0000
16889TPS    CA620027   5.932   3.274   1.664  0.0000  0.0000  0.0000
16889TPS    HH620028   5.947   3.370   1.615  0.0000  0.0000  0.0000
16889TPS    CA520029   5.955   3.267   1.803  0.0000  0.0000  0.0000
16889TPS    HA520030   5.987   3.354   1.858  0.0000  0.0000  0.0000
16889TPS    CA420031   5.932   3.146   1.871  0.0000  0.0000  0.0000
16889TPS    HA420032   5.951   3.140   1.978  0.0000  0.0000  0.0000
16889TPS    CA320033   5.885   3.034   1.801  0.0000  0.0000  0.0000
16889TPS    HA320034   5.868   2.941   1.855  0.0000  0.0000  0.0000
16890TPS    HA220035   5.686   3.654   7.991  0.0000  0.0000  0.0000
16890TPS    CA220036   5.713   3.562   7.940  0.0000  0.0000  0.0000
16890TPS    CA120037   5.738   3.443   8.010  0.0000  0.0000  0.0000
16890TPS     Si20038   5.738   3.443   8.196  0.0000  0.0000  0.0000
16890TPS    CA620039   5.779   3.329   7.938  0.0000  0.0000  0.0000
16890TPS    HH620040   5.794   3.233   7.987  0.0000  0.0000  0.0000
16890TPS    CA520041   5.802   3.336   7.799  0.0000  0.0000  0.0000
16890TPS    HA520042   5.834   3.249   7.744  0.0000  0.0000  0.0000
16890TPS    CA420043   5.779   3.457   7.731  0.0000  0.0000  0.0000
16890TPS    HA420044   5.798   3.463   7.624  0.0000  0.0000  0.0000
16890TPS    CA320045   5.732   3.569   7.801  0.0000  0.0000  0.0000
16890TPS    HA320046   5.715   3.662   7.747  0.0000  0.0000  0.0000
16891TPS    HA220047   4.223   2.180   8.156  0.0000  0.0000  0.0000
16891TPS    CA220048   4.250   2.088   8.105  0.0000  0.0000  0.0000
16891TPS    CA120049   4.275   1.969   8.175  0.0000  0.0000  0.0000
16891TPS     Si20050   4.275   1.969   8.361  0.0000  0.0000  0.0000
16891TPS    CA620051   4.316   1.855   8.103  0.0000  0.0000  0.0000
16891TPS    HH620052   4.331   1.759   8.152  0.0000  0.0000  0.0000
16891TPS    CA520053   4.339   1.862   7.964  0.0000  0.0000  0.0000
16891TPS    HA520054   4.371   1.775   7.909  0.0000  0.0000  0.0000
16891TPS    CA420055   4.316   1.983   7.896  0.0000  0.0000  0.0000
16891TPS    HA420056   4.335   1.989   7.789  0.0000  0.0000  0.0000
16891TPS    CA320057   4.269   2.095   7.966  0.0000  0.0000  0.0000
16891TPS    HA320058   4.252   2.188   7.912  0.0000  0.0000  0.0000
16892TPS    HA220059   4.609   0.001   1.475  0.0000  0.0000  0.0000
16892TPS    CA220060   4.636   0.093   1.526  0.0000  0.0000  0.0000
16892TPS    CA120061   4.661   0.212   1.456  0.0000  0.0000  0.0000
16892TPS     Si20062   4.661   0.212   1.270  0.0000  0.0000  0.0000
16892TPS    CA620063   4.702   0.326   1.528  0.0000  0.0000  0.0000
16892TPS    HH620064   4.717   0.422   1.479  0.0000  0.0000  0.0000
16892TPS    CA520065   4.725   0.319   1.667  0.0000  0.0000  0.0000
16892TPS    HA520066   4.757   0.406   1.722  0.0000  0.0000  0.0000
16892TPS    CA420067   4.702   0.198   1.735  0.0000  0.0000  0.0000
16892TPS    HA420068   4.721   0.192   1.842  0.0000  0.0000  0.0000
16892TPS    CA320069   4.655   0.086   1.665  0.0000  0.0000  0.0000
16892TPS    HA320070   4.638  -0.007   1.719  0.0000  0.0000  0.0000
16893TPS    HA220071   4.910   1.335   8.276  0.0000  0.0000  0.0000
16893TPS    CA220072   4.937   1.243   8.225  0.0000  0.0000  0.0000
16893TPS    CA120073   4.962   1.124   8.295  0.0000  0.0000  0.0000
16893TPS     Si20074   4.962   1.124   8.481  0.0000  0.0000  0.0000
16893TPS    CA620075   5.003   1.010   8.223  0.0000  0.0000  0.0000
16893TPS    HH620076   5.018   0.914   8.272  0.0000  0.0000  0.0000
16893TPS    CA520077   5.026   1.017   8.084  0.0000  0.0000  0.0000
16893TPS    HA520078   5.058   0.930   8.029  0.0000  0.0000  0.0000
16893TPS    CA420079   5.003   1.138   8.016  0.0000  0.0000  0.0000
16893TPS    HA420080   5.022   1.144   7.909  0.0000  0.0000  0.0000
16893TPS    CA320081   4.956   1.250   8.086  0.0000  0.0000  0.0000
16893TPS    HA320082   4.939   1.343   8.032  0.0000  0.0000  0.0000
16894TPS    HA220083   3.080   0.054   1.471  0.0000  0.0000  0.0000
16894TPS    CA220084   3.107   0.146   1.522  0.0000  0.0000  0.0000
16894TPS    CA120085   3.132   0.265   1.452  0.0000  0.0000  0.0000
16894TPS     Si20086   3.132   0.265   1.266  0.0000  0.0000  0.0000
16894TPS    CA620087   3.173   0.379   1.524  0.0000  0.0000  0.0000
16894TPS    HH620088   3.188   0.475   1.475  0.0000  0.0000  0.0000
16894TPS    CA520089   3.196   0.372   1.663  0.0000  0.0000  0.0000
16894TPS    HA520090   3.228   0.459   1.718  0.0000  0.0000  0.0000
16894TPS    CA420091   3.173   0.251   1.731  0.0000  0.0000  0.0000
16894TPS    HA420092   3.192   0.245   1.838  0.0000  0.0000  0.0000
16894TPS    CA320093   3.126   0.139   1.661  0.0000  0.0000  0.0000
16894TPS    HA320094   3.109   0.046   1.715  0.0000  0.0000  0.0000
16895TPS    HA220095   2.491   1.543   1.413  0.0000  0.0000  0.0000
16895TPS    CA220096   2.518   1.635   1.464  0.0000  0.0000  0.0000
16895TPS    CA120097   2.543   1.754   1.394  0.0000  0.0000  0.0000
16895TPS     Si20098   2.543   1.754   1.208  0.0000  0.0000  0.0000
16895TPS    CA620099   2.584   1.868   1.466  0.0000  0.0000  0.0000
16895TPS    HH620100   2.599   1.964   1.417  0.0000  0.0000  0.0000
16895TPS    CA520101   2.607   1.861   1.605  0.0000  0.0000  0.0000
16895TPS    HA520102   2.639   1.948   1.660  0.0000  0.0000  0.0000
16895TPS    CA420103   2.584   1.740   1.673  0.0000  0.0000  0.0000
16895TPS    HA420104   2.603   1.734   1.780  0.0000  0.0000  0.0000
16895TPS    CA320105   2.537   1.628   1.603  0.0000  0.0000  0.0000
16895TPS    HA320106   2.520   1.535   1.657  0.0000  0.0000  0.0000
16896TPS    HA220107   1.193   9.131   1.342  0.0000  0.0000  0.0000
16896TPS    CA220108   1.220   9.223   1.393  0.0000  0.0000  0.0000
16896TPS    CA120109   1.245   9.342   1.323  0.0000  0.0000  0.0000
16896TPS     Si20110   1.245   9.342   1.137  0.0000  0.0000  0.0000
16896TPS    CA620111   1.286   9.456   1.395  0.0000  0.0000  0.0000
16896TPS    HH620112   1.301   9.552   1.346  0.0000  0.0000  0.0000
16896TPS    CA520113   1.309   9.449   1.534  0.0000  0.0000  0.0000
16896TPS    HA520114   1.341   9.536   1.589  0.0000  0.0000  0.0000
16896TPS    CA420115   1.286   9.328   1.602  0.0000  0.0000  0.0000
16896TPS    HA420116   1.305   9.322   1.709  0.0000  0.0000  0.0000
16896TPS    CA320117   1.239   9.216   1.532  0.0000  0.0000  0.0000
16896TPS    HA320118   1.222   9.123   1.586  0.0000  0.0000  0.0000
16897TPS    HA220119   2.126   8.427   8.196  0.0000  0.0000  0.0000
16897TPS    CA220120   2.153   8.335   8.145  0.0000  0.0000  0.0000
16897TPS    CA120121   2.178   8.216   8.215  0.0000  0.0000  0.0000
16897TPS     Si20122   2.178   8.216   8.401  0.0000  0.0000  0.0000
16897TPS    CA620123   2.219   8.102   8.143  0.0000  0.0000  0.0000
16897TPS    HH620124   2.234   8.006   8.192  0.0000  0.0000  0.0000
16897TPS    CA520125   2.242   8.109   8.004  0.0000  0.0000  0.0000
16897TPS    HA520126   2.274   8.022   7.949  0.0000  0.0000  0.0000
16897TPS    CA420127   2.219   8.230   7.936  0.0000  0.0000  0.0000
16897TPS    HA420128   2.238   8.236   7.829  0.0000  0.0000  0.0000
16897TPS    CA320129   2.172   8.342   8.006  0.0000  0.0000  0.0000
16897TPS    HA320130   2.155   8.435   7.952  0.0000  0.0000  0.0000
16898TPS    HA220131   6.413   1.229   1.586  0.0000  0.0000  0.0000
16898TPS    CA220132   6.440   1.321   1.637  0.0000  0.0000  0.0000
16898TPS    CA120133   6.465   1.440   1.567  0.0000  0.0000  0.0000
16898TPS     Si20134   6.465   1.440   1.381  0.0000  0.0000  0.0000
16898TPS    CA620135   6.506   1.554   1.639  0.0000  0.0000  0.0000
16898TPS    HH620136   6.521   1.650   1.590  0.0000  0.0000  0.0000
16898TPS    CA520137   6.529   1.547   1.778  0.0000  0.0000  0.0000
16898TPS    HA520138   6.561   1.634   1.833  0.0000  0.0000  0.0000
16898TPS    CA420139   6.506   1.426   1.846  0.0000  0.0000  0.0000
16898TPS    HA420140   6.525   1.420   1.953  0.0000  0.0000  0.0000
16898TPS    CA320141   6.459   1.314   1.776  0.0000  0.0000  0.0000
16898TPS    HA320142   6.442   1.221   1.830  0.0000  0.0000  0.0000
16899TPS    HA220143   2.819   5.783   1.425  0.0000  0.0000  0.0000
16899TPS    CA220144   2.780   5.870   1.476  0.0000  0.0000  0.0000
16899TPS    CA120145   2.723   5.978   1.406  0.0000  0.0000  0.0000
16899TPS     Si20146   2.723   5.978   1.220  0.0000  0.0000  0.0000
16899TPS    CA620147   2.681   6.092   1.478  0.0000  0.0000  0.0000
16899TPS    HH620148   2.631   6.175   1.429  0.0000  0.0000  0.0000
16899TPS    CA520149   2.703   6.100   1.617  0.0000  0.0000  0.0000
16899TPS    HA520150   2.672   6.189   1.672  0.0000  0.0000  0.0000
16899TPS    CA420151   2.763   5.994   1.685  0.0000  0.0000  0.0000
16899TPS    HA420152   2.782   6.001   1.792  0.0000  0.0000  0.0000
16899TPS    CA320153   2.799   5.878   1.615  0.0000  0.0000  0.0000
16899TPS    HA320154   2.846   5.795   1.669  0.0000  0.0000  0.0000
16900TPS    HA220155   7.583   3.554   1.619  0.0000  0.0000  0.0000
16900TPS    CA220156   7.610   3.646   1.670  0.0000  0.0000  0.0000
16900TPS    CA120157   7.635   3.765   1.600  0.0000  0.0000  0.0000
16900TPS     Si20158   7.635   3.765   1.414  0.0000  0.0000  0.0000
16900TPS    CA620159   7.676   3.879   1.672  0.0000  0.0000  0.0000
16900TPS    HH620160   7.691   3.975   1.623  0.0000  0.0000  0.0000
16900TPS    CA520161   7.699   3.872   1.811  0.0000  0.0000  0.0000
16900TPS    HA520162   7.731   3.959   1.866  0.0000  0.0000  0.0000
16900TPS    CA420163   7.676   3.751   1.879  0.0000  0.0000  0.0000
16900TPS    HA420164   7.695   3.745   1.986  0.0000  0.0000  0.0000
16900TPS    CA320165   7.629   3.639   1.809  0.0000  0.0000  0.0000
16900TPS    HA320166   7.612   3.546   1.863  0.0000  0.0000  0.0000
16901TPS    HA220167   3.072   4.090   8.203  0.0000  0.0000  0.0000
16901TPS    CA220168   3.099   3.998   8.152  0.0000  0.0000  0.0000
16901TPS    CA120169   3.124   3.879   8.222  0.0000  0.0000  0.0000
16901TPS     Si20170   3.124   3.879   8.408  0.0000  0.0000  0.0000
16901TPS    CA620171   3.165   3.765   8.150  0.0000  0.0000  0.0000
16901TPS    HH620172   3.180   3.669   8.199  0.0000  0.0000  0.0000
16901TPS    CA520173   3.188   3.772   8.011  0.0000  0.0000  0.0000
16901TPS    HA520174   3.220   3.685   7.956  0.0000  0.0000  0.0000
16901TPS    CA420175   3.165   3.893   7.943  0.0000  0.0000  0.0000
16901TPS    HA420176   3.184   3.899   7.836  0.0000  0.0000  0.0000
16901TPS    CA320177   3.118   4.005   8.013  0.0000  0.0000  0.0000
16901TPS    HA320178   3.101   4.098   7.959  0.0000  0.0000  0.0000
16902TPS    HA220179   6.083   0.613   8.077  0.0000  0.0000  0.0000
16902TPS    CA220180   6.077   0.518   8.026  0.0000  0.0000  0.0000
16902TPS    CA120181   6.060   0.397   8.096  0.0000  0.0000  0.0000
16902TPS     Si20182   6.060   0.397   8.282  0.0000  0.0000  0.0000
16902TPS    CA620183   6.060   0.276   8.024  0.0000  0.0000  0.0000
16902TPS    HH620184   6.041   0.181   8.073  0.0000  0.0000  0.0000
16902TPS    CA520185   6.083   0.275   7.885  0.0000  0.0000  0.0000
16902TPS    HA520186   6.084   0.182   7.830  0.0000  0.0000  0.0000
16902TPS    CA420187   6.103   0.396   7.817  0.0000  0.0000  0.0000
16902TPS    HA420188   6.123   0.395   7.710  0.0000  0.0000  0.0000
16902TPS    CA320189   6.097   0.517   7.887  0.0000  0.0000  0.0000
16902TPS    HA320190   6.113   0.610   7.833  0.0000  0.0000  0.0000
16903TPS    HA220191   1.662   7.850   1.410  0.0000  0.0000  0.0000
16903TPS    CA220192   1.689   7.942   1.461  0.0000  0.0000  0.0000
16903TPS    CA120193   1.714   8.061   1.391  0.0000  0.0000  0.0000
16903TPS     Si20194   1.714   8.061   1.205  0.0000  0.0000  0.0000
16903TPS    CA620195   1.755   8.175   1.463  0.0000  0.0000  0.0000
16903TPS    HH620196   1.770   8.271   1.414  0.0000  0.0000  0.0000
16903TPS    CA520197   1.778   8.168   1.602  0.0000  0.0000  0.0000
16903TPS    HA520198   1.810   8.255   1.657  0.0000  0.0000  0.0000
16903TPS    CA420199   1.755   8.047   1.670  0.0000  0.0000  0.0000
16903TPS    HA420200   1.774   8.041   1.777  0.0000  0.0000  0.0000
16903TPS    CA320201   1.708   7.935   1.600  0.0000  0.0000  0.0000
16903TPS    HA320202   1.691   7.842   1.654  0.0000  0.0000  0.0000
16904TPS    HA220203   1.615   3.071   1.427  0.0000  0.0000  0.0000
16904TPS    CA220204   1.642   3.163   1.478  0.0000  0.0000  0.0000
16904TPS    CA120205   1.667   3.282   1.408  0.0000  0.0000  0.0000
16904TPS     Si20206   1.667   3.282   1.222  0.0000  0.0000  0.0000
16904TPS    CA620207   1.708   3.396   1.480  0.0000  0.0000  0.0000
16904TPS    HH620208   1.723   3.492   1.431  0.0000  0.0000  0.0000
16904TPS    CA520209   1.731   3.389   1.619  0.0000  0.0000  0.0000
16904TPS    HA520210   1.763   3.476   1.674  0.0000  0.0000  0.0000
16904TPS    CA420211   1.708   3.268   1.687  0.0000  0.0000  0.0000
16904TPS    HA420212   1.727   3.262   1.794  0.0000  0.0000  0.0000
16904TPS    CA320213   1.661   3.156   1.617  0.0000  0.0000  0.0000
16904TPS    HA320214   1.644   3.063   1.671  0.0000  0.0000  0.0000
16905TPS    HA220215   3.723   2.269   1.390  0.0000  0.0000  0.0000
16905TPS    CA220216   3.750   2.361   1.441  0.0000  0.0000  0.0000
16905TPS    CA120217   3.775   2.480   1.371  0.0000  0.0000  0.0000
16905TPS     Si20218   3.775   2.480   1.185  0.0000  0.0000  0.0000
16905TPS    CA620219   3.816   2.594   1.443  0.0000  0.0000  0.0000
16905TPS    HH620220   3.831   2.690   1.394  0.0000  0.0000  0.0000
16905TPS    CA520221   3.839   2.587   1.582  0.0000  0.0000  0.0000
16905TPS    HA520222   3.871   2.674   1.637  0.0000  0.0000  0.0000
16905TPS    CA420223   3.816   2.466   1.650  0.0000  0.0000  0.0000
16905TPS    HA420224   3.835   2.460   1.757  0.0000  0.0000  0.0000
16905TPS    CA320225   3.769   2.354   1.580  0.0000  0.0000  0.0000
16905TPS    HA320226   3.752   2.261   1.634  0.0000  0.0000  0.0000
16906TPS    HA220227   3.026   2.781   1.365  0.0000  0.0000  0.0000
16906TPS    CA220228   3.053   2.873   1.416  0.0000  0.0000  0.0000
16906TPS    CA120229   3.078   2.992   1.346  0.0000  0.0000  0.0000
16906TPS     Si20230   3.078   2.992   1.160  0.0000  0.0000  0.0000
16906TPS    CA620231   3.119   3.106   1.418  0.0000  0.0000  0.0000
16906TPS    HH620232   3.134   3.202   1.369  0.0000  0.0000  0.0000
16906TPS    CA520233   3.142   3.099   1.557  0.0000  0.0000  0.0000
16906TPS    HA520234   3.174   3.186   1.612  0.0000  0.0000  0.0000
16906TPS    CA420235   3.119   2.978   1.625  0.0000  0.0000  0.0000
16906TPS    HA420236   3.138   2.972   1.732  0.0000  0.0000  0.0000
16906TPS    CA320237   3.072   2.866   1.555  0.0000  0.0000  0.0000
16906TPS    HA320238   3.055   2.773   1.609  0.0000  0.0000  0.0000
16907TPS    HA220239   1.897   1.588   7.984  0.0000  0.0000  0.0000
16907TPS    CA220240   1.924   1.496   7.933  0.0000  0.0000  0.0000
16907TPS    CA120241   1.949   1.377   8.003  0.0000  0.0000  0.0000
16907TPS     Si20242   1.949   1.377   8.189  0.0000  0.0000  0.0000
16907TPS    CA620243   1.990   1.263   7.931  0.0000  0.0000  0.0000
16907TPS    HH620244   2.005   1.167   7.980  0.0000  0.0000  0.0000
16907TPS    CA520245   2.013   1.270   7.792  0.0000  0.0000  0.0000
16907TPS    HA520246   2.045   1.183   7.737  0.0000  0.0000  0.0000
16907TPS    CA420247   1.990   1.391   7.724  0.0000  0.0000  0.0000
16907TPS    HA420248   2.009   1.397   7.617  0.0000  0.0000  0.0000
16907TPS    CA320249   1.943   1.503   7.794  0.0000  0.0000  0.0000
16907TPS    HA320250   1.926   1.596   7.740  0.0000  0.0000  0.0000
16908TPS    HA220251   2.747   3.184   1.549  0.0000  0.0000  0.0000
16908TPS    CA220252   2.774   3.276   1.600  0.0000  0.0000  0.0000
16908TPS    CA120253   2.799   3.395   1.530  0.0000  0.0000  0.0000
16908TPS     Si20254   2.799   3.395   1.344  0.0000  0.0000  0.0000
16908TPS    CA620255   2.840   3.509   1.602  0.0000  0.0000  0.0000
16908TPS    HH620256   2.855   3.605   1.553  0.0000  0.0000  0.0000
16908TPS    CA520257   2.863   3.502   1.741  0.0000  0.0000  0.0000
16908TPS    HA520258   2.895   3.589   1.796  0.0000  0.0000  0.0000
16908TPS    CA420259   2.840   3.381   1.809  0.0000  0.0000  0.0000
16908TPS    HA420260   2.859   3.375   1.916  0.0000  0.0000  0.0000
16908TPS    CA320261   2.793   3.269   1.739  0.0000  0.0000  0.0000
16908TPS    HA320262   2.776   3.176   1.793  0.0000  0.0000  0.0000
16909TPS    HA220263   8.692   1.684   8.166  0.0000  0.0000  0.0000
16909TPS    CA220264   8.686   1.589   8.115  0.0000  0.0000  0.0000
16909TPS    CA120265   8.669   1.468   8.185  0.0000  0.0000  0.0000
16909TPS     Si20266   8.669   1.468   8.371  0.0000  0.0000  0.0000
16909TPS    CA620267   8.669   1.347   8.113  0.0000  0.0000  0.0000
16909TPS    HH620268   8.650   1.252   8.162  0.0000  0.0000  0.0000
16909TPS    CA520269   8.692   1.346   7.974  0.0000  0.0000  0.0000
16909TPS    HA520270   8.693   1.253   7.919  0.0000  0.0000  0.0000
16909TPS    CA420271   8.712   1.467   7.906  0.0000  0.0000  0.0000
16909TPS    HA420272   8.732   1.466   7.799  0.0000  0.0000  0.0000
16909TPS    CA320273   8.706   1.588   7.976  0.0000  0.0000  0.0000
16909TPS    HA320274   8.722   1.681   7.922  0.0000  0.0000  0.0000
16910TPS    HA220275   7.191   7.987   8.006  0.0000  0.0000  0.0000
16910TPS    CA220276   7.152   7.900   7.955  0.0000  0.0000  0.0000
16910TPS    CA120277   7.095   7.792   8.025  0.0000  0.0000  0.0000
16910TPS     Si20278   7.095   7.792   8.211  0.0000  0.0000  0.0000
16910TPS    CA620279   7.053   7.678   7.953  0.0000  0.0000  0.0000
16910TPS    HH620280   7.003   7.595   8.002  0.0000  0.0000  0.0000
16910TPS    CA520281   7.075   7.670   7.814  0.0000  0.0000  0.0000
16910TPS    HA520282   7.044   7.581   7.759  0.0000  0.0000  0.0000
16910TPS    CA420283   7.135   7.776   7.746  0.0000  0.0000  0.0000
16910TPS    HA420284   7.154   7.769   7.639  0.0000  0.0000  0.0000
16910TPS    CA320285   7.171   7.892   7.816  0.0000  0.0000  0.0000
16910TPS    HA320286   7.218   7.975   7.762  0.0000  0.0000  0.0000
16911TPS    HA220287   4.014   1.720   1.365  0.0000  0.0000  0.0000
16911TPS    CA220288   4.041   1.812   1.416  0.0000  0.0000  0.0000
16911TPS    CA120289   4.066   1.931   1.346  0.0000  0.0000  0.0000
16911TPS     Si20290   4.066   1.931   1.160  0.0000  0.0000  0.0000
16911TPS    CA620291   4.107   2.045   1.418  0.0000  0.0000  0.0000
16911TPS    HH620292   4.122   2.141   1.369  0.0000  0.0000  0.0000
16911TPS    CA520293   4.130   2.038   1.557  0.0000  0.0000  0.0000
16911TPS    HA520294   4.162   2.125   1.612  0.0000  0.0000  0.0000
16911TPS    CA420295   4.107   1.917   1.625  0.0000  0.0000  0.0000
16911TPS    HA420296   4.126   1.911   1.732  0.0000  0.0000  0.0000
16911TPS    CA320297   4.060   1.805   1.555  0.0000  0.0000  0.0000
16911TPS    HA320298   4.043   1.712   1.609  0.0000  0.0000  0.0000
16912TPS    HA220299   8.850   4.276   8.033  0.0000  0.0000  0.0000
16912TPS    CA220300   8.856   4.371   7.982  0.0000  0.0000  0.0000
16912TPS    CA120301   8.873   4.492   8.052  0.0000  0.0000  0.0000
16912TPS     Si20302   8.873   4.492   8.238  0.0000  0.0000  0.0000
16912TPS    CA620303   8.873   4.613   7.980  0.0000  0.0000  0.0000
16912TPS    HH620304   8.892   4.708   8.029  0.0000  0.0000  0.0000
16912TPS    CA520305   8.850   4.614   7.841  0.0000  0.0000  0.0000
16912TPS    HA520306   8.849   4.707   7.786  0.0000  0.0000  0.0000
16912TPS    CA420307   8.830   4.493   7.773  0.0000  0.0000  0.0000
16912TPS    HA420308   8.810   4.494   7.666  0.0000  0.0000  0.0000
16912TPS    CA320309   8.836   4.372   7.843  0.0000  0.0000  0.0000
16912TPS    HA320310   8.820   4.279   7.789  0.0000  0.0000  0.0000
16913TPS    HA220311   7.043   3.944   1.563  0.0000  0.0000  0.0000
16913TPS    CA220312   7.070   4.036   1.614  0.0000  0.0000  0.0000
16913TPS    CA120313   7.095   4.155   1.544  0.0000  0.0000  0.0000
16913TPS     Si20314   7.095   4.155   1.358  0.0000  0.0000  0.0000
16913TPS    CA620315   7.136   4.269   1.616  0.0000  0.0000  0.0000
16913TPS    HH620316   7.151   4.365   1.567  0.0000  0.0000  0.0000
16913TPS    CA520317   7.159   4.262   1.755  0.0000  0.0000  0.0000
16913TPS    HA520318   7.191   4.349   1.810  0.0000  0.0000  0.0000
16913TPS    CA420319   7.136   4.141   1.823  0.0000  0.0000  0.0000
16913TPS    HA420320   7.155   4.135   1.930  0.0000  0.0000  0.0000
16913TPS    CA320321   7.089   4.029   1.753  0.0000  0.0000  0.0000
16913TPS    HA320322   7.072   3.936   1.807  0.0000  0.0000  0.0000
16914TPS    HA220323   1.213   0.659   8.121  0.0000  0.0000  0.0000
16914TPS    CA220324   1.240   0.567   8.070  0.0000  0.0000  0.0000
16914TPS    CA120325   1.265   0.448   8.140  0.0000  0.0000  0.0000
16914TPS     Si20326   1.265   0.448   8.326  0.0000  0.0000  0.0000
16914TPS    CA620327   1.306   0.334   8.068  0.0000  0.0000  0.0000
16914TPS    HH620328   1.321   0.238   8.117  0.0000  0.0000  0.0000
16914TPS    CA520329   1.329   0.341   7.929  0.0000  0.0000  0.0000
16914TPS    HA520330   1.361   0.254   7.874  0.0000  0.0000  0.0000
16914TPS    CA420331   1.306   0.462   7.861  0.0000  0.0000  0.0000
16914TPS    HA420332   1.325   0.468   7.754  0.0000  0.0000  0.0000
16914TPS    CA320333   1.259   0.574   7.931  0.0000  0.0000  0.0000
16914TPS    HA320334   1.242   0.667   7.877  0.0000  0.0000  0.0000
16915TPS    HA220335   6.104   3.117   8.065  0.0000  0.0000  0.0000
16915TPS    CA220336   6.131   3.025   8.014  0.0000  0.0000  0.0000
16915TPS    CA120337   6.156   2.906   8.084  0.0000  0.0000  0.0000
16915TPS     Si20338   6.156   2.906   8.270  0.0000  0.0000  0.0000
16915TPS    CA620339   6.197   2.792   8.012  0.0000  0.0000  0.0000
16915TPS    HH620340   6.212   2.696   8.061  0.0000  0.0000  0.0000
16915TPS    CA520341   6.220   2.799   7.873  0.0000  0.0000  0.0000
16915TPS    HA520342   6.252   2.712   7.818  0.0000  0.0000  0.0000
16915TPS    CA420343   6.197   2.920   7.805  0.0000  0.0000  0.0000
16915TPS    HA420344   6.216   2.926   7.698  0.0000  0.0000  0.0000
16915TPS    CA320345   6.150   3.032   7.875  0.0000  0.0000  0.0000
16915TPS    HA320346   6.133   3.125   7.821  0.0000  0.0000  0.0000
16916TPS    HA220347   0.171   7.187   7.995  0.0000  0.0000  0.0000
16916TPS    CA220348   0.198   7.095   7.944  0.0000  0.0000  0.0000
16916TPS    CA120349   0.223   6.976   8.014  0.0000  0.0000  0.0000
16916TPS     Si20350   0.223   6.976   8.200  0.0000  0.0000  0.0000
16916TPS    CA620351   0.264   6.862   7.942  0.0000  0.0000  0.0000
16916TPS    HH620352   0.279   6.766   7.991  0.0000  0.0000  0.0000
16916TPS    CA520353   0.287   6.869   7.803  0.0000  0.0000  0.0000
16916TPS    HA520354   0.319   6.782   7.748  0.0000  0.0000  0.0000
16916TPS    CA420355   0.264   6.990   7.735  0.0000  0.0000  0.0000
16916TPS    HA420356   0.283   6.996   7.628  0.0000  0.0000  0.0000
16916TPS    CA320357   0.217   7.102   7.805  0.0000  0.0000  0.0000
16916TPS    HA320358   0.200   7.195   7.751  0.0000  0.0000  0.0000
16917TPS    HA220359   1.598   5.559   7.976  0.0000  0.0000  0.0000
16917TPS    CA220360   1.625   5.467   7.925  0.0000  0.0000  0.0000
16917TPS    CA120361   1.650   5.348   7.995  0.0000  0.0000  0.0000
16917TPS     Si20362   1.650   5.348   8.181  0.0000  0.0000  0.0000
16917TPS    CA620363   1.691   5.234   7.923  0.0000  0.0000  0.0000
16917TPS    HH620364   1.706   5.138   7.972  0.0000  0.0000  0.0000
16917TPS    CA520365   1.714   5.241   7.784  0.0000  0.0000  0.0000
16917TPS    HA520366   1.746   5.154   7.729  0.0000  0.0000  0.0000
16917TPS    CA420367   1.691   5.362   7.716  0.0000  0.0000  0.0000
16917TPS    HA420368   1.710   5.368   7.609  0.0000  0.0000  0.0000
16917TPS    CA320369   1.644   5.474   7.786  0.0000  0.0000  0.0000
16917TPS    HA320370   1.627   5.567   7.732  0.0000  0.0000  0.0000
16918TPS    HA220371   0.313   1.866   8.050  0.0000  0.0000  0.0000
16918TPS    CA220372   0.340   1.774   7.999  0.0000  0.0000  0.0000
16918TPS    CA120373   0.365   1.655   8.069  0.0000  0.0000  0.0000
16918TPS     Si20374   0.365   1.655   8.255  0.0000  0.0000  0.0000
16918TPS    CA620375   0.406   1.541   7.997  0.0000  0.0000  0.0000
16918TPS    HH620376   0.421   1.445   8.046  0.0000  0.0000  0.0000
16918TPS    CA520377   0.429   1.548   7.858  0.0000  0.0000  0.0000
16918TPS    HA520378   0.461   1.461   7.803  0.0000  0.0000  0.0000
16918TPS    CA420379   0.406   1.669   7.790  0.0000  0.0000  0.0000
16918TPS    HA420380   0.425   1.675   7.683  0.0000  0.0000  0.0000
16918TPS    CA320381   0.359   1.781   7.860  0.0000  0.0000  0.0000
16918TPS    HA320382   0.342   1.874   7.806  0.0000  0.0000  0.0000
16919TPS    HA220383   3.777   4.038   8.044  0.0000  0.0000  0.0000
16919TPS    CA220384   3.804   3.946   7.993  0.0000  0.0000  0.0000
16919TPS    CA120385   3.829   3.827   8.063  0.0000  0.0000  0.0000
16919TPS     Si20386   3.829   3.827   8.249  0.0000  0.0000  0.0000
16919TPS    CA620387   3.870   3.713   7.991  0.0000  0.0000  0.0000
16919TPS    HH620388   3.885   3.617   8.040  0.0000  0.0000  0.0000
16919TPS    CA520389   3.893   3.720   7.852  0.0000  0.0000  0.0000
16919TPS    HA520390   3.925   3.633   7.797  0.0000  0.0000  0.0000
16919TPS    CA420391   3.870   3.841   7.784  0.0000  0.0000  0.0000
16919TPS    HA420392   3.889   3.847   7.677  0.0000  0.0000  0.0000
16919TPS    CA320393   3.823   3.953   7.854  0.0000  0.0000  0.0000
16919TPS    HA320394   3.806   4.046   7.800  0.0000  0.0000  0.0000
16920TPS    HA220395   6.001   8.112   8.151  0.0000  0.0000  0.0000
16920TPS    CA220396   6.028   8.020   8.100  0.0000  0.0000  0.0000
16920TPS    CA120397   6.053   7.901   8.170  0.0000  0.0000  0.0000
16920TPS     Si20398   6.053   7.901   8.356  0.0000  0.0000  0.0000
16920TPS    CA620399   6.094   7.787   8.098  0.0000  0.0000  0.0000
16920TPS    HH620400   6.109   7.691   8.147  0.0000  0.0000  0.0000
16920TPS    CA520401   6.117   7.794   7.959  0.0000  0.0000  0.0000
16920TPS    HA520402   6.149   7.707   7.904  0.0000  0.0000  0.0000
16920TPS    CA420403   6.094   7.915   7.891  0.0000  0.0000  0.0000
16920TPS    HA420404   6.113   7.921   7.784  0.0000  0.0000  0.0000
16920TPS    CA320405   6.047   8.027   7.961  0.0000  0.0000  0.0000
16920TPS    HA320406   6.030   8.120   7.907  0.0000  0.0000  0.0000
16921TPS    HA220407   4.180   6.847   8.053  0.0000  0.0000  0.0000
16921TPS    CA220408   4.207   6.755   8.002  0.0000  0.0000  0.0000
16921TPS    CA120409   4.232   6.636   8.072  0.0000  0.0000  0.0000
16921TPS     Si20410   4.232   6.636   8.258  0.0000  0.0000  0.0000
16921TPS    CA620411   4.273   6.522   8.000  0.0000  0.0000  0.0000
16921TPS    HH620412   4.288   6.426   8.049  0.0000  0.0000  0.0000
16921TPS    CA520413   4.296   6.529   7.861  0.0000  0.0000  0.0000
16921TPS    HA520414   4.328   6.442   7.806  0.0000  0.0000  0.0000
16921TPS    CA420415   4.273   6.650   7.793  0.0000  0.0000  0.0000
16921TPS    HA420416   4.292   6.656   7.686  0.0000  0.0000  0.0000
16921TPS    CA320417   4.226   6.762   7.863  0.0000  0.0000  0.0000
16921TPS    HA320418   4.209   6.855   7.809  0.0000  0.0000  0.0000
16922TPS    HA220419   4.839   3.393   8.057  0.0000  0.0000  0.0000
16922TPS    CA220420   4.833   3.298   8.006  0.0000  0.0000  0.0000
16922TPS    CA120421   4.816   3.177   8.076  0.0000  0.0000  0.0000
16922TPS     Si20422   4.816   3.177   8.262  0.0000  0.0000  0.0000
16922TPS    CA620423   4.816   3.056   8.004  0.0000  0.0000  0.0000
16922TPS    HH620424   4.797   2.961   8.053  0.0000  0.0000  0.0000
16922TPS    CA520425   4.839   3.055   7.865  0.0000  0.0000  0.0000
16922TPS    HA520426   4.840   2.962   7.810  0.0000  0.0000  0.0000
16922TPS    CA420427   4.859   3.176   7.797  0.0000  0.0000  0.0000
16922TPS    HA420428   4.879   3.175   7.690  0.0000  0.0000  0.0000
16922TPS    CA320429   4.853   3.297   7.867  0.0000  0.0000  0.0000
16922TPS    HA320430   4.869   3.390   7.813  0.0000  0.0000  0.0000
16923TPS    HA220431   8.026   5.446   7.990  0.0000  0.0000  0.0000
16923TPS    CA220432   8.121   5.457   7.939  0.0000  0.0000  0.0000
16923TPS    CA120433   8.243   5.461   8.009  0.0000  0.0000  0.0000
16923TPS     Si20434   8.243   5.461   8.195  0.0000  0.0000  0.0000
16923TPS    CA620435   8.363   5.482   7.937  0.0000  0.0000  0.0000
16923TPS    HH620436   8.459   5.480   7.986  0.0000  0.0000  0.0000
16923TPS    CA520437   8.359   5.505   7.798  0.0000  0.0000  0.0000
16923TPS    HA520438   8.451   5.522   7.743  0.0000  0.0000  0.0000
16923TPS    CA420439   8.237   5.504   7.730  0.0000  0.0000  0.0000
16923TPS    HA420440   8.234   5.524   7.623  0.0000  0.0000  0.0000
16923TPS    CA320441   8.118   5.477   7.800  0.0000  0.0000  0.0000
16923TPS    HA320442   8.024   5.476   7.746  0.0000  0.0000  0.0000
16924TPS    HA220443   4.930   4.864   8.166  0.0000  0.0000  0.0000
16924TPS    CA220444   4.957   4.772   8.115  0.0000  0.0000  0.0000
16924TPS    CA120445   4.982   4.653   8.185  0.0000  0.0000  0.0000
16924TPS     Si20446   4.982   4.653   8.371  0.0000  0.0000  0.0000
16924TPS    CA620447   5.023   4.539   8.113  0.0000  0.0000  0.0000
16924TPS    HH620448   5.038   4.443   8.162  0.0000  0.0000  0.0000
16924TPS    CA520449   5.046   4.546   7.974  0.0000  0.0000  0.0000
16924TPS    HA520450   5.078   4.459   7.919  0.0000  0.0000  0.0000
16924TPS    CA420451   5.023   4.667   7.906  0.0000  0.0000  0.0000
16924TPS    HA420452   5.042   4.673   7.799  0.0000  0.0000  0.0000
16924TPS    CA320453   4.976   4.779   7.976  0.0000  0.0000  0.0000
16924TPS    HA320454   4.959   4.872   7.922  0.0000  0.0000  0.0000
16925TPS    HA220455   2.179   3.087   1.542  0.0000  0.0000  0.0000
16925TPS    CA220456   2.206   3.179   1.593  0.0000  0.0000  0.0000
16925TPS    CA120457   2.231   3.298   1.523  0.0000  0.0000  0.0000
16925TPS     Si20458   2.231   3.298   1.337  0.0000  0.0000  0.0000
16925TPS    CA620459   2.272   3.412   1.595  0.0000  0.0000  0.0000
16925TPS    HH620460   2.287   3.508   1.546  0.0000  0.0000  0.0000
16925TPS    CA520461   2.295   3.405   1.734  0.0000  0.0000  0.0000
16925TPS    HA520462   2.327   3.492   1.789  0.0000  0.0000  0.0000
16925TPS    CA420463   2.272   3.284   1.802  0.0000  0.0000  0.0000
16925TPS    HA420464   2.291   3.278   1.909  0.0000  0.0000  0.0000
16925TPS    CA320465   2.225   3.172   1.732  0.0000  0.0000  0.0000
16925TPS    HA320466   2.208   3.079   1.786  0.0000  0.0000  0.0000
16926TPS    HA220467   7.542   8.764   8.001  0.0000  0.0000  0.0000
16926TPS    CA220468   7.569   8.672   7.950  0.0000  0.0000  0.0000
16926TPS    CA120469   7.594   8.553   8.020  0.0000  0.0000  0.0000
16926TPS     Si20470   7.594   8.553   8.206  0.0000  0.0000  0.0000
16926TPS    CA620471   7.635   8.439   7.948  0.0000  0.0000  0.0000
16926TPS    HH620472   7.650   8.343   7.997  0.0000  0.0000  0.0000
16926TPS    CA520473   7.658   8.446   7.809  0.0000  0.0000  0.0000
16926TPS    HA520474   7.690   8.359   7.754  0.0000  0.0000  0.0000
16926TPS    CA420475   7.635   8.567   7.741  0.0000  0.0000  0.0000
16926TPS    HA420476   7.654   8.573   7.634  0.0000  0.0000  0.0000
16926TPS    CA320477   7.588   8.679   7.811  0.0000  0.0000  0.0000
16926TPS    HA320478   7.571   8.772   7.757  0.0000  0.0000  0.0000
16927TPS    HA220479   5.752   5.139   1.363  0.0000  0.0000  0.0000
16927TPS    CA220480   5.686   5.207   1.414  0.0000  0.0000  0.0000
16927TPS    CA120481   5.595   5.289   1.344  0.0000  0.0000  0.0000
16927TPS     Si20482   5.595   5.289   1.158  0.0000  0.0000  0.0000
16927TPS    CA620483   5.517   5.382   1.416  0.0000  0.0000  0.0000
16927TPS    HH620484   5.442   5.443   1.367  0.0000  0.0000  0.0000
16927TPS    CA520485   5.534   5.397   1.555  0.0000  0.0000  0.0000
16927TPS    HA520486   5.475   5.469   1.610  0.0000  0.0000  0.0000
16927TPS    CA420487   5.627   5.318   1.623  0.0000  0.0000  0.0000
16927TPS    HA420488   5.642   5.331   1.730  0.0000  0.0000  0.0000
16927TPS    CA320489   5.701   5.221   1.553  0.0000  0.0000  0.0000
16927TPS    HA320490   5.773   5.159   1.607  0.0000  0.0000  0.0000
16928TPS    HA220491   3.889   5.421   1.632  0.0000  0.0000  0.0000
16928TPS    CA220492   3.916   5.513   1.683  0.0000  0.0000  0.0000
16928TPS    CA120493   3.941   5.632   1.613  0.0000  0.0000  0.0000
16928TPS     Si20494   3.941   5.632   1.427  0.0000  0.0000  0.0000
16928TPS    CA620495   3.982   5.746   1.685  0.0000  0.0000  0.0000
16928TPS    HH620496   3.997   5.842   1.636  0.0000  0.0000  0.0000
16928TPS    CA520497   4.005   5.739   1.824  0.0000  0.0000  0.0000
16928TPS    HA520498   4.037   5.826   1.879  0.0000  0.0000  0.0000
16928TPS    CA420499   3.982   5.618   1.892  0.0000  0.0000  0.0000
16928TPS    HA420500   4.001   5.612   1.999  0.0000  0.0000  0.0000
16928TPS    CA320501   3.935   5.506   1.822  0.0000  0.0000  0.0000
16928TPS    HA320502   3.918   5.413   1.876  0.0000  0.0000  0.0000
16929TPS    HA220503   3.739   0.987   1.618  0.0000  0.0000  0.0000
16929TPS    CA220504   3.766   1.079   1.669  0.0000  0.0000  0.0000
16929TPS    CA120505   3.791   1.198   1.599  0.0000  0.0000  0.0000
16929TPS     Si20506   3.791   1.198   1.413  0.0000  0.0000  0.0000
16929TPS    CA620507   3.832   1.312   1.671  0.0000  0.0000  0.0000
16929TPS    HH620508   3.847   1.408   1.622  0.0000  0.0000  0.0000
16929TPS    CA520509   3.855   1.305   1.810  0.0000  0.0000  0.0000
16929TPS    HA520510   3.887   1.392   1.865  0.0000  0.0000  0.0000
16929TPS    CA420511   3.832   1.184   1.878  0.0000  0.0000  0.0000
16929TPS    HA420512   3.851   1.178   1.985  0.0000  0.0000  0.0000
16929TPS    CA320513   3.785   1.072   1.808  0.0000  0.0000  0.0000
16929TPS    HA320514   3.768   0.979   1.862  0.0000  0.0000  0.0000
16930TPS    HA220515   8.433   6.132   1.540  0.0000  0.0000  0.0000
16930TPS    CA220516   8.460   6.224   1.591  0.0000  0.0000  0.0000
16930TPS    CA120517   8.485   6.343   1.521  0.0000  0.0000  0.0000
16930TPS     Si20518   8.485   6.343   1.335  0.0000  0.0000  0.0000
16930TPS    CA620519   8.526   6.457   1.593  0.0000  0.0000  0.0000
16930TPS    HH620520   8.541   6.553   1.544  0.0000  0.0000  0.0000
16930TPS    CA520521   8.549   6.450   1.732  0.0000  0.0000  0.0000
16930TPS    HA520522   8.581   6.537   1.787  0.0000  0.0000  0.0000
16930TPS    CA420523   8.526   6.329   1.800  0.0000  0.0000  0.0000
16930TPS    HA420524   8.545   6.323   1.907  0.0000  0.0000  0.0000
16930TPS    CA320525   8.479   6.217   1.730  0.0000  0.0000  0.0000
16930TPS    HA320526   8.462   6.124   1.784  0.0000  0.0000  0.0000
16931TPS    HA220527   2.135   6.585   8.149  0.0000  0.0000  0.0000
16931TPS    CA220528   2.162   6.493   8.098  0.0000  0.0000  0.0000
16931TPS    CA120529   2.187   6.374   8.168  0.0000  0.0000  0.0000
16931TPS     Si20530   2.187   6.374   8.354  0.0000  0.0000  0.0000
16931TPS    CA620531   2.228   6.260   8.096  0.0000  0.0000  0.0000
16931TPS    HH620532   2.243   6.164   8.145  0.0000  0.0000  0.0000
16931TPS    CA520533   2.251   6.267   7.957  0.0000  0.0000  0.0000
16931TPS    HA520534   2.283   6.180   7.902  0.0000  0.0000  0.0000
16931TPS    CA420535   2.228   6.388   7.889  0.0000  0.0000  0.0000
16931TPS    HA420536   2.247   6.394   7.782  0.0000  0.0000  0.0000
16931TPS    CA320537   2.181   6.500   7.959  0.0000  0.0000  0.0000
16931TPS    HA320538   2.164   6.593   7.905  0.0000  0.0000  0.0000
16932TPS    HA220539   6.178   0.764   1.519  0.0000  0.0000  0.0000
16932TPS    CA220540   6.172   0.859   1.570  0.0000  0.0000  0.0000
16932TPS    CA120541   6.155   0.980   1.500  0.0000  0.0000  0.0000
16932TPS     Si20542   6.155   0.980   1.314  0.0000  0.0000  0.0000
16932TPS    CA620543   6.155   1.101   1.572  0.0000  0.0000  0.0000
16932TPS    HH620544   6.136   1.196   1.523  0.0000  0.0000  0.0000
16932TPS    CA520545   6.178   1.102   1.711  0.0000  0.0000  0.0000
16932TPS    HA520546   6.179   1.195   1.766  0.0000  0.0000  0.0000
16932TPS    CA420547   6.198   0.981   1.779  0.0000  0.0000  0.0000
16932TPS    HA420548   6.218   0.982   1.886  0.0000  0.0000  0.0000
16932TPS    CA320549   6.192   0.860   1.709  0.0000  0.0000  0.0000
16932TPS    HA320550   6.208   0.767   1.763  0.0000  0.0000  0.0000
16933TPS    HA220551   3.611   0.047   1.513  0.0000  0.0000  0.0000
16933TPS    CA220552   3.638   0.139   1.564  0.0000  0.0000  0.0000
16933TPS    CA120553   3.663   0.258   1.494  0.0000  0.0000  0.0000
16933TPS     Si20554   3.663   0.258   1.308  0.0000  0.0000  0.0000
16933TPS    CA620555   3.704   0.372   1.566  0.0000  0.0000  0.0000
16933TPS    HH620556   3.719   0.468   1.517  0.0000  0.0000  0.0000
16933TPS    CA520557   3.727   0.365   1.705  0.0000  0.0000  0.0000
16933TPS    HA520558   3.759   0.452   1.760  0.0000  0.0000  0.0000
16933TPS    CA420559   3.704   0.244   1.773  0.0000  0.0000  0.0000
16933TPS    HA420560   3.723   0.238   1.880  0.0000  0.0000  0.0000
16933TPS    CA320561   3.657   0.132   1.703  0.0000  0.0000  0.0000
16933TPS    HA320562   3.640   0.039   1.757  0.0000  0.0000  0.0000
16934TPS    HA220563   0.685   7.880   8.054  0.0000  0.0000  0.0000
16934TPS    CA220564   0.712   7.788   8.003  0.0000  0.0000  0.0000
16934TPS    CA120565   0.737   7.669   8.073  0.0000  0.0000  0.0000
16934TPS     Si20566   0.737   7.669   8.259  0.0000  0.0000  0.0000
16934TPS    CA620567   0.778   7.555   8.001  0.0000  0.0000  0.0000
16934TPS    HH620568   0.793   7.459   8.050  0.0000  0.0000  0.0000
16934TPS    CA520569   0.801   7.562   7.862  0.0000  0.0000  0.0000
16934TPS    HA520570   0.833   7.475   7.807  0.0000  0.0000  0.0000
16934TPS    CA420571   0.778   7.683   7.794  0.0000  0.0000  0.0000
16934TPS    HA420572   0.797   7.689   7.687  0.0000  0.0000  0.0000
16934TPS    CA320573   0.731   7.795   7.864  0.0000  0.0000  0.0000
16934TPS    HA320574   0.714   7.888   7.810  0.0000  0.0000  0.0000
16935TPS    HA220575   3.500   1.525   8.099  0.0000  0.0000  0.0000
16935TPS    CA220576   3.527   1.433   8.048  0.0000  0.0000  0.0000
16935TPS    CA120577   3.552   1.314   8.118  0.0000  0.0000  0.0000
16935TPS     Si20578   3.552   1.314   8.304  0.0000  0.0000  0.0000
16935TPS    CA620579   3.593   1.200   8.046  0.0000  0.0000  0.0000
16935TPS    HH620580   3.608   1.104   8.095  0.0000  0.0000  0.0000
16935TPS    CA520581   3.616   1.207   7.907  0.0000  0.0000  0.0000
16935TPS    HA520582   3.648   1.120   7.852  0.0000  0.0000  0.0000
16935TPS    CA420583   3.593   1.328   7.839  0.0000  0.0000  0.0000
16935TPS    HA420584   3.612   1.334   7.732  0.0000  0.0000  0.0000
16935TPS    CA320585   3.546   1.440   7.909  0.0000  0.0000  0.0000
16935TPS    HA320586   3.529   1.533   7.855  0.0000  0.0000  0.0000
16936TPS    HA220587   7.339   4.250   8.135  0.0000  0.0000  0.0000
16936TPS    CA220588   7.366   4.158   8.084  0.0000  0.0000  0.0000
16936TPS    CA120589   7.391   4.039   8.154  0.0000  0.0000  0.0000
16936TPS     Si20590   7.391   4.039   8.340  0.0000  0.0000  0.0000
16936TPS    CA620591   7.432   3.925   8.082  0.0000  0.0000  0.0000
16936TPS    HH620592   7.447   3.829   8.131  0.0000  0.0000  0.0000
16936TPS    CA520593   7.455   3.932   7.943  0.0000  0.0000  0.0000
16936TPS    HA520594   7.487   3.845   7.888  0.0000  0.0000  0.0000
16936TPS    CA420595   7.432   4.053   7.875  0.0000  0.0000  0.0000
16936TPS    HA420596   7.451   4.059   7.768  0.0000  0.0000  0.0000
16936TPS    CA320597   7.385   4.165   7.945  0.0000  0.0000  0.0000
16936TPS    HA320598   7.368   4.258   7.891  0.0000  0.0000  0.0000
16937TPS    HA220599   0.274   3.267   8.152  0.0000  0.0000  0.0000
16937TPS    CA220600   0.301   3.175   8.101  0.0000  0.0000  0.0000
16937TPS    CA120601   0.326   3.056   8.171  0.0000  0.0000  0.0000
16937TPS     Si20602   0.326   3.056   8.357  0.0000  0.0000  0.0000
16937TPS    CA620603   0.367   2.942   8.099  0.0000  0.0000  0.0000
16937TPS    HH620604   0.382   2.846   8.148  0.0000  0.0000  0.0000
16937TPS    CA520605   0.390   2.949   7.960  0.0000  0.0000  0.0000
16937TPS    HA520606   0.422   2.862   7.905  0.0000  0.0000  0.0000
16937TPS    CA420607   0.367   3.070   7.892  0.0000  0.0000  0.0000
16937TPS    HA420608   0.386   3.076   7.785  0.0000  0.0000  0.0000
16937TPS    CA320609   0.320   3.182   7.962  0.0000  0.0000  0.0000
16937TPS    HA320610   0.303   3.275   7.908  0.0000  0.0000  0.0000
16938TPS    HA220611   5.901   8.813   1.485  0.0000  0.0000  0.0000
16938TPS    CA220612   5.928   8.905   1.536  0.0000  0.0000  0.0000
16938TPS    CA120613   5.953   9.024   1.466  0.0000  0.0000  0.0000
16938TPS     Si20614   5.953   9.024   1.280  0.0000  0.0000  0.0000
16938TPS    CA620615   5.994   9.138   1.538  0.0000  0.0000  0.0000
16938TPS    HH620616   6.009   9.234   1.489  0.0000  0.0000  0.0000
16938TPS    CA520617   6.017   9.131   1.677  0.0000  0.0000  0.0000
16938TPS    HA520618   6.049   9.218   1.732  0.0000  0.0000  0.0000
16938TPS    CA420619   5.994   9.010   1.745  0.0000  0.0000  0.0000
16938TPS    HA420620   6.013   9.004   1.852  0.0000  0.0000  0.0000
16938TPS    CA320621   5.947   8.898   1.675  0.0000  0.0000  0.0000
16938TPS    HA320622   5.930   8.805   1.729  0.0000  0.0000  0.0000
16939TPS    HA220623   3.142   4.735   8.106  0.0000  0.0000  0.0000
16939TPS    CA220624   3.169   4.643   8.055  0.0000  0.0000  0.0000
16939TPS    CA120625   3.194   4.524   8.125  0.0000  0.0000  0.0000
16939TPS     Si20626   3.194   4.524   8.311  0.0000  0.0000  0.0000
16939TPS    CA620627   3.235   4.410   8.053  0.0000  0.0000  0.0000
16939TPS    HH620628   3.250   4.314   8.102  0.0000  0.0000  0.0000
16939TPS    CA520629   3.258   4.417   7.914  0.0000  0.0000  0.0000
16939TPS    HA520630   3.290   4.330   7.859  0.0000  0.0000  0.0000
16939TPS    CA420631   3.235   4.538   7.846  0.0000  0.0000  0.0000
16939TPS    HA420632   3.254   4.544   7.739  0.0000  0.0000  0.0000
16939TPS    CA320633   3.188   4.650   7.916  0.0000  0.0000  0.0000
16939TPS    HA320634   3.171   4.743   7.862  0.0000  0.0000  0.0000
16940TPS    HA220635   5.653   0.072   1.375  0.0000  0.0000  0.0000
16940TPS    CA220636   5.680   0.164   1.426  0.0000  0.0000  0.0000
16940TPS    CA120637   5.705   0.283   1.356  0.0000  0.0000  0.0000
16940TPS     Si20638   5.705   0.283   1.170  0.0000  0.0000  0.0000
16940TPS    CA620639   5.746   0.397   1.428  0.0000  0.0000  0.0000
16940TPS    HH620640   5.761   0.493   1.379  0.0000  0.0000  0.0000
16940TPS    CA520641   5.769   0.390   1.567  0.0000  0.0000  0.0000
16940TPS    HA520642   5.801   0.477   1.622  0.0000  0.0000  0.0000
16940TPS    CA420643   5.746   0.269   1.635  0.0000  0.0000  0.0000
16940TPS    HA420644   5.765   0.263   1.742  0.0000  0.0000  0.0000
16940TPS    CA320645   5.699   0.157   1.565  0.0000  0.0000  0.0000
16940TPS    HA320646   5.682   0.064   1.619  0.0000  0.0000  0.0000
16941TPS    HA220647   5.823   6.707   8.036  0.0000  0.0000  0.0000
16941TPS    CA220648   5.850   6.615   7.985  0.0000  0.0000  0.0000
16941TPS    CA120649   5.875   6.496   8.055  0.0000  0.0000  0.0000
16941TPS     Si20650   5.875   6.496   8.241  0.0000  0.0000  0.0000
16941TPS    CA620651   5.916   6.382   7.983  0.0000  0.0000  0.0000
16941TPS    HH620652   5.931   6.286   8.032  0.0000  0.0000  0.0000
16941TPS    CA520653   5.939   6.389   7.844  0.0000  0.0000  0.0000
16941TPS    HA520654   5.971   6.302   7.789  0.0000  0.0000  0.0000
16941TPS    CA420655   5.916   6.510   7.776  0.0000  0.0000  0.0000
16941TPS    HA420656   5.935   6.516   7.669  0.0000  0.0000  0.0000
16941TPS    CA320657   5.869   6.622   7.846  0.0000  0.0000  0.0000
16941TPS    HA320658   5.852   6.715   7.792  0.0000  0.0000  0.0000
16942TPS    HA220659   2.740   7.023   8.093  0.0000  0.0000  0.0000
16942TPS    CA220660   2.767   6.931   8.042  0.0000  0.0000  0.0000
16942TPS    CA120661   2.792   6.812   8.112  0.0000  0.0000  0.0000
16942TPS     Si20662   2.792   6.812   8.298  0.0000  0.0000  0.0000
16942TPS    CA620663   2.833   6.698   8.040  0.0000  0.0000  0.0000
16942TPS    HH620664   2.848   6.602   8.089  0.0000  0.0000  0.0000
16942TPS    CA520665   2.856   6.705   7.901  0.0000  0.0000  0.0000
16942TPS    HA520666   2.888   6.618   7.846  0.0000  0.0000  0.0000
16942TPS    CA420667   2.833   6.826   7.833  0.0000  0.0000  0.0000
16942TPS    HA420668   2.852   6.832   7.726  0.0000  0.0000  0.0000
16942TPS    CA320669   2.786   6.938   7.903  0.0000  0.0000  0.0000
16942TPS    HA320670   2.769   7.031   7.849  0.0000  0.0000  0.0000
16943TPS    HA220671   4.048   4.474   8.119  0.0000  0.0000  0.0000
16943TPS    CA220672   3.982   4.406   8.068  0.0000  0.0000  0.0000
16943TPS    CA120673   3.891   4.324   8.138  0.0000  0.0000  0.0000
16943TPS     Si20674   3.891   4.324   8.324  0.0000  0.0000  0.0000
16943TPS    CA620675   3.813   4.231   8.066  0.0000  0.0000  0.0000
16943TPS    HH620676   3.738   4.170   8.115  0.0000  0.0000  0.0000
16943TPS    CA520677   3.830   4.216   7.927  0.0000  0.0000  0.0000
16943TPS    HA520678   3.771   4.144   7.872  0.0000  0.0000  0.0000
16943TPS    CA420679   3.923   4.295   7.859  0.0000  0.0000  0.0000
16943TPS    HA420680   3.938   4.282   7.752  0.0000  0.0000  0.0000
16943TPS    CA320681   3.997   4.392   7.929  0.0000  0.0000  0.0000
16943TPS    HA320682   4.069   4.454   7.875  0.0000  0.0000  0.0000
16944TPS    HA220683   7.421   8.381   8.061  0.0000  0.0000  0.0000
16944TPS    CA220684   7.326   8.370   8.010  0.0000  0.0000  0.0000
16944TPS    CA120685   7.204   8.366   8.080  0.0000  0.0000  0.0000
16944TPS     Si20686   7.204   8.366   8.266  0.0000  0.0000  0.0000
16944TPS    CA620687   7.084   8.345   8.008  0.0000  0.0000  0.0000
16944TPS    HH620688   6.988   8.347   8.057  0.0000  0.0000  0.0000
16944TPS    CA520689   7.088   8.322   7.869  0.0000  0.0000  0.0000
16944TPS    HA520690   6.996   8.305   7.814  0.0000  0.0000  0.0000
16944TPS    CA420691   7.210   8.323   7.801  0.0000  0.0000  0.0000
16944TPS    HA420692   7.213   8.303   7.694  0.0000  0.0000  0.0000
16944TPS    CA320693   7.329   8.350   7.871  0.0000  0.0000  0.0000
16944TPS    HA320694   7.423   8.351   7.817  0.0000  0.0000  0.0000
16945TPS    HA220695   7.121   6.842   1.436  0.0000  0.0000  0.0000
16945TPS    CA220696   7.148   6.934   1.487  0.0000  0.0000  0.0000
16945TPS    CA120697   7.173   7.053   1.417  0.0000  0.0000  0.0000
16945TPS     Si20698   7.173   7.053   1.231  0.0000  0.0000  0.0000
16945TPS    CA620699   7.214   7.167   1.489  0.0000  0.0000  0.0000
16945TPS    HH620700   7.229   7.263   1.440  0.0000  0.0000  0.0000
16945TPS    CA520701   7.237   7.160   1.628  0.0000  0.0000  0.0000
16945TPS    HA520702   7.269   7.247   1.683  0.0000  0.0000  0.0000
16945TPS    CA420703   7.214   7.039   1.696  0.0000  0.0000  0.0000
16945TPS    HA420704   7.233   7.033   1.803  0.0000  0.0000  0.0000
16945TPS    CA320705   7.167   6.927   1.626  0.0000  0.0000  0.0000
16945TPS    HA320706   7.150   6.834   1.680  0.0000  0.0000  0.0000
16946TPS    HA220707   2.967   3.653   8.204  0.0000  0.0000  0.0000
16946TPS    CA220708   2.994   3.561   8.153  0.0000  0.0000  0.0000
16946TPS    CA120709   3.019   3.442   8.223  0.0000  0.0000  0.0000
16946TPS     Si20710   3.019   3.442   8.409  0.0000  0.0000  0.0000
16946TPS    CA620711   3.060   3.328   8.151  0.0000  0.0000  0.0000
16946TPS    HH620712   3.075   3.232   8.200  0.0000  0.0000  0.0000
16946TPS    CA520713   3.083   3.335   8.012  0.0000  0.0000  0.0000
16946TPS    HA520714   3.115   3.248   7.957  0.0000  0.0000  0.0000
16946TPS    CA420715   3.060   3.456   7.944  0.0000  0.0000  0.0000
16946TPS    HA420716   3.079   3.462   7.837  0.0000  0.0000  0.0000
16946TPS    CA320717   3.013   3.568   8.014  0.0000  0.0000  0.0000
16946TPS    HA320718   2.996   3.661   7.960  0.0000  0.0000  0.0000
16947TPS    HA220719   3.468   8.448   1.549  0.0000  0.0000  0.0000
16947TPS    CA220720   3.474   8.353   1.600  0.0000  0.0000  0.0000
16947TPS    CA120721   3.491   8.232   1.530  0.0000  0.0000  0.0000
16947TPS     Si20722   3.491   8.232   1.344  0.0000  0.0000  0.0000
16947TPS    CA620723   3.491   8.111   1.602  0.0000  0.0000  0.0000
16947TPS    HH620724   3.510   8.016   1.553  0.0000  0.0000  0.0000
16947TPS    CA520725   3.468   8.110   1.741  0.0000  0.0000  0.0000
16947TPS    HA520726   3.467   8.017   1.796  0.0000  0.0000  0.0000
16947TPS    CA420727   3.448   8.231   1.809  0.0000  0.0000  0.0000
16947TPS    HA420728   3.428   8.230   1.916  0.0000  0.0000  0.0000
16947TPS    CA320729   3.454   8.352   1.739  0.0000  0.0000  0.0000
16947TPS    HA320730   3.438   8.445   1.793  0.0000  0.0000  0.0000
16948TPS    HA220731   2.919   5.383   1.596  0.0000  0.0000  0.0000
16948TPS    CA220732   2.946   5.475   1.647  0.0000  0.0000  0.0000
16948TPS    CA120733   2.971   5.594   1.577  0.0000  0.0000  0.0000
16948TPS     Si20734   2.971   5.594   1.391  0.0000  0.0000  0.0000
16948TPS    CA620735   3.012   5.708   1.649  0.0000  0.0000  0.0000
16948TPS    HH620736   3.027   5.804   1.600  0.0000  0.0000  0.0000
16948TPS    CA520737   3.035   5.701   1.788  0.0000  0.0000  0.0000
16948TPS    HA520738   3.067   5.788   1.843  0.0000  0.0000  0.0000
16948TPS    CA420739   3.012   5.580   1.856  0.0000  0.0000  0.0000
16948TPS    HA420740   3.031   5.574   1.963  0.0000  0.0000  0.0000
16948TPS    CA320741   2.965   5.468   1.786  0.0000  0.0000  0.0000
16948TPS    HA320742   2.948   5.375   1.840  0.0000  0.0000  0.0000
16949TPS    HA220743   1.410   2.683   1.491  0.0000  0.0000  0.0000
16949TPS    CA220744   1.371   2.770   1.542  0.0000  0.0000  0.0000
16949TPS    CA120745   1.314   2.878   1.472  0.0000  0.0000  0.0000
16949TPS     Si20746   1.314   2.878   1.286  0.0000  0.0000  0.0000
16949TPS    CA620747   1.272   2.992   1.544  0.0000  0.0000  0.0000
16949TPS    HH620748   1.222   3.075   1.495  0.0000  0.0000  0.0000
16949TPS    CA520749   1.294   3.000   1.683  0.0000  0.0000  0.0000
16949TPS    HA520750   1.263   3.089   1.738  0.0000  0.0000  0.0000
16949TPS    CA420751   1.354   2.894   1.751  0.0000  0.0000  0.0000
16949TPS    HA420752   1.373   2.901   1.858  0.0000  0.0000  0.0000
16949TPS    CA320753   1.390   2.778   1.681  0.0000  0.0000  0.0000
16949TPS    HA320754   1.437   2.695   1.735  0.0000  0.0000  0.0000
16950TPS    HA220755   7.866   4.686   8.004  0.0000  0.0000  0.0000
16950TPS    CA220756   7.893   4.594   7.953  0.0000  0.0000  0.0000
16950TPS    CA120757   7.918   4.475   8.023  0.0000  0.0000  0.0000
16950TPS     Si20758   7.918   4.475   8.209  0.0000  0.0000  0.0000
16950TPS    CA620759   7.959   4.361   7.951  0.0000  0.0000  0.0000
16950TPS    HH620760   7.974   4.265   8.000  0.0000  0.0000  0.0000
16950TPS    CA520761   7.982   4.368   7.812  0.0000  0.0000  0.0000
16950TPS    HA520762   8.014   4.281   7.757  0.0000  0.0000  0.0000
16950TPS    CA420763   7.959   4.489   7.744  0.0000  0.0000  0.0000
16950TPS    HA420764   7.978   4.495   7.637  0.0000  0.0000  0.0000
16950TPS    CA320765   7.912   4.601   7.814  0.0000  0.0000  0.0000
16950TPS    HA320766   7.895   4.694   7.760  0.0000  0.0000  0.0000
16951TPS    HA220767   2.775   5.514   1.588  0.0000  0.0000  0.0000
16951TPS    CA220768   2.736   5.601   1.639  0.0000  0.0000  0.0000
16951TPS    CA120769   2.679   5.709   1.569  0.0000  0.0000  0.0000
16951TPS     Si20770   2.679   5.709   1.383  0.0000  0.0000  0.0000
16951TPS    CA620771   2.637   5.823   1.641  0.0000  0.0000  0.0000
16951TPS    HH620772   2.587   5.906   1.592  0.0000  0.0000  0.0000
16951TPS    CA520773   2.659   5.831   1.780  0.0000  0.0000  0.0000
16951TPS    HA520774   2.628   5.920   1.835  0.0000  0.0000  0.0000
16951TPS    CA420775   2.719   5.725   1.848  0.0000  0.0000  0.0000
16951TPS    HA420776   2.738   5.732   1.955  0.0000  0.0000  0.0000
16951TPS    CA320777   2.755   5.609   1.778  0.0000  0.0000  0.0000
16951TPS    HA320778   2.802   5.526   1.832  0.0000  0.0000  0.0000
16952TPS    HA220779   5.122   8.243   1.556  0.0000  0.0000  0.0000
16952TPS    CA220780   5.149   8.335   1.607  0.0000  0.0000  0.0000
16952TPS    CA120781   5.174   8.454   1.537  0.0000  0.0000  0.0000
16952TPS     Si20782   5.174   8.454   1.351  0.0000  0.0000  0.0000
16952TPS    CA620783   5.215   8.568   1.609  0.0000  0.0000  0.0000
16952TPS    HH620784   5.230   8.664   1.560  0.0000  0.0000  0.0000
16952TPS    CA520785   5.238   8.561   1.748  0.0000  0.0000  0.0000
16952TPS    HA520786   5.270   8.648   1.803  0.0000  0.0000  0.0000
16952TPS    CA420787   5.215   8.440   1.816  0.0000  0.0000  0.0000
16952TPS    HA420788   5.234   8.434   1.923  0.0000  0.0000  0.0000
16952TPS    CA320789   5.168   8.328   1.746  0.0000  0.0000  0.0000
16952TPS    HA320790   5.151   8.235   1.800  0.0000  0.0000  0.0000
16953TPS    HA220791   1.398   7.782   8.127  0.0000  0.0000  0.0000
16953TPS    CA220792   1.425   7.690   8.076  0.0000  0.0000  0.0000
16953TPS    CA120793   1.450   7.571   8.146  0.0000  0.0000  0.0000
16953TPS     Si20794   1.450   7.571   8.332  0.0000  0.0000  0.0000
16953TPS    CA620795   1.491   7.457   8.074  0.0000  0.0000  0.0000
16953TPS    HH620796   1.506   7.361   8.123  0.0000  0.0000  0.0000
16953TPS    CA520797   1.514   7.464   7.935  0.0000  0.0000  0.0000
16953TPS    HA520798   1.546   7.377   7.880  0.0000  0.0000  0.0000
16953TPS    CA420799   1.491   7.585   7.867  0.0000  0.0000  0.0000
16953TPS    HA420800   1.510   7.591   7.760  0.0000  0.0000  0.0000
16953TPS    CA320801   1.444   7.697   7.937  0.0000  0.0000  0.0000
16953TPS    HA320802   1.427   7.790   7.883  0.0000  0.0000  0.0000
16954TPS    HA220803   0.198   6.863   1.437  0.0000  0.0000  0.0000
16954TPS    CA220804   0.132   6.931   1.488  0.0000  0.0000  0.0000
16954TPS    CA120805   0.041   7.013   1.418  0.0000  0.0000  0.0000
16954TPS     Si20806   0.041   7.013   1.232  0.0000  0.0000  0.0000
16954TPS    CA620807  -0.037   7.106   1.490  0.0000  0.0000  0.0000
16954TPS    HH620808  -0.112   7.167   1.441  0.0000  0.0000  0.0000
16954TPS    CA520809  -0.020   7.121   1.629  0.0000  0.0000  0.0000
16954TPS    HA520810  -0.079   7.193   1.684  0.0000  0.0000  0.0000
16954TPS    CA420811   0.073   7.042   1.697  0.0000  0.0000  0.0000
16954TPS    HA420812   0.088   7.055   1.804  0.0000  0.0000  0.0000
16954TPS    CA320813   0.147   6.945   1.627  0.0000  0.0000  0.0000
16954TPS    HA320814   0.219   6.883   1.681  0.0000  0.0000  0.0000
16955TPS    HA220815   3.163   8.174   1.502  0.0000  0.0000  0.0000
16955TPS    CA220816   3.190   8.266   1.553  0.0000  0.0000  0.0000
16955TPS    CA120817   3.215   8.385   1.483  0.0000  0.0000  0.0000
16955TPS     Si20818   3.215   8.385   1.297  0.0000  0.0000  0.0000
16955TPS    CA620819   3.256   8.499   1.555  0.0000  0.0000  0.0000
16955TPS    HH620820   3.271   8.595   1.506  0.0000  0.0000  0.0000
16955TPS    CA520821   3.279   8.492   1.694  0.0000  0.0000  0.0000
16955TPS    HA520822   3.311   8.579   1.749  0.0000  0.0000  0.0000
16955TPS    CA420823   3.256   8.371   1.762  0.0000  0.0000  0.0000
16955TPS    HA420824   3.275   8.365   1.869  0.0000  0.0000  0.0000
16955TPS    CA320825   3.209   8.259   1.692  0.0000  0.0000  0.0000
16955TPS    HA320826   3.192   8.166   1.746  0.0000  0.0000  0.0000
16956TPS    HA220827   5.619   8.942   1.554  0.0000  0.0000  0.0000
16956TPS    CA220828   5.646   9.034   1.605  0.0000  0.0000  0.0000
16956TPS    CA120829   5.671   9.153   1.535  0.0000  0.0000  0.0000
16956TPS     Si20830   5.671   9.153   1.349  0.0000  0.0000  0.0000
16956TPS    CA620831   5.712   9.267   1.607  0.0000  0.0000  0.0000
16956TPS    HH620832   5.727   9.363   1.558  0.0000  0.0000  0.0000
16956TPS    CA520833   5.735   9.260   1.746  0.0000  0.0000  0.0000
16956TPS    HA520834   5.767   9.347   1.801  0.0000  0.0000  0.0000
16956TPS    CA420835   5.712   9.139   1.814  0.0000  0.0000  0.0000
16956TPS    HA420836   5.731   9.133   1.921  0.0000  0.0000  0.0000
16956TPS    CA320837   5.665   9.027   1.744  0.0000  0.0000  0.0000
16956TPS    HA320838   5.648   8.934   1.798  0.0000  0.0000  0.0000
16957TPS    HA220839   8.374   2.250   1.437  0.0000  0.0000  0.0000
16957TPS    CA220840   8.401   2.342   1.488  0.0000  0.0000  0.0000
16957TPS    CA120841   8.426   2.461   1.418  0.0000  0.0000  0.0000
16957TPS     Si20842   8.426   2.461   1.232  0.0000  0.0000  0.0000
16957TPS    CA620843   8.467   2.575   1.490  0.0000  0.0000  0.0000
16957TPS    HH620844   8.482   2.671   1.441  0.0000  0.0000  0.0000
16957TPS    CA520845   8.490   2.568   1.629  0.0000  0.0000  0.0000
16957TPS    HA520846   8.522   2.655   1.684  0.0000  0.0000  0.0000
16957TPS    CA420847   8.467   2.447   1.697  0.0000  0.0000  0.0000
16957TPS    HA420848   8.486   2.441   1.804  0.0000  0.0000  0.0000
16957TPS    CA320849   8.420   2.335   1.627  0.0000  0.0000  0.0000
16957TPS    HA320850   8.403   2.242   1.681  0.0000  0.0000  0.0000
16958TPS    HA220851   4.657   0.651   7.996  0.0000  0.0000  0.0000
16958TPS    CA220852   4.684   0.559   7.945  0.0000  0.0000  0.0000
16958TPS    CA120853   4.709   0.440   8.015  0.0000  0.0000  0.0000
16958TPS     Si20854   4.709   0.440   8.201  0.0000  0.0000  0.0000
16958TPS    CA620855   4.750   0.326   7.943  0.0000  0.0000  0.0000
16958TPS    HH620856   4.765   0.230   7.992  0.0000  0.0000  0.0000
16958TPS    CA520857   4.773   0.333   7.804  0.0000  0.0000  0.0000
16958TPS    HA520858   4.805   0.246   7.749  0.0000  0.0000  0.0000
16958TPS    CA420859   4.750   0.454   7.736  0.0000  0.0000  0.0000
16958TPS    HA420860   4.769   0.460   7.629  0.0000  0.0000  0.0000
16958TPS    CA320861   4.703   0.566   7.806  0.0000  0.0000  0.0000
16958TPS    HA320862   4.686   0.659   7.752  0.0000  0.0000  0.0000
16959TPS    HA220863   7.143   0.229   8.159  0.0000  0.0000  0.0000
16959TPS    CA220864   7.170   0.137   8.108  0.0000  0.0000  0.0000
16959TPS    CA120865   7.195   0.018   8.178  0.0000  0.0000  0.0000
16959TPS     Si20866   7.195   0.018   8.364  0.0000  0.0000  0.0000
16959TPS    CA620867   7.236  -0.096   8.106  0.0000  0.0000  0.0000
16959TPS    HH620868   7.251  -0.192   8.155  0.0000  0.0000  0.0000
16959TPS    CA520869   7.259  -0.089   7.967  0.0000  0.0000  0.0000
16959TPS    HA520870   7.291  -0.176   7.912  0.0000  0.0000  0.0000
16959TPS    CA420871   7.236   0.032   7.899  0.0000  0.0000  0.0000
16959TPS    HA420872   7.255   0.038   7.792  0.0000  0.0000  0.0000
16959TPS    CA320873   7.189   0.144   7.969  0.0000  0.0000  0.0000
16959TPS    HA320874   7.172   0.237   7.915  0.0000  0.0000  0.0000
16960TPS    HA220875   3.255   8.690   8.026  0.0000  0.0000  0.0000
16960TPS    CA220876   3.282   8.598   7.975  0.0000  0.0000  0.0000
16960TPS    CA120877   3.307   8.479   8.045  0.0000  0.0000  0.0000
16960TPS     Si20878   3.307   8.479   8.231  0.0000  0.0000  0.0000
16960TPS    CA620879   3.348   8.365   7.973  0.0000  0.0000  0.0000
16960TPS    HH620880   3.363   8.269   8.022  0.0000  0.0000  0.0000
16960TPS    CA520881   3.371   8.372   7.834  0.0000  0.0000  0.0000
16960TPS    HA520882   3.403   8.285   7.779  0.0000  0.0000  0.0000
16960TPS    CA420883   3.348   8.493   7.766  0.0000  0.0000  0.0000
16960TPS    HA420884   3.367   8.499   7.659  0.0000  0.0000  0.0000
16960TPS    CA320885   3.301   8.605   7.836  0.0000  0.0000  0.0000
16960TPS    HA320886   3.284   8.698   7.782  0.0000  0.0000  0.0000
16961TPS    HA220887   3.598   1.528   1.578  0.0000  0.0000  0.0000
16961TPS    CA220888   3.625   1.620   1.629  0.0000  0.0000  0.0000
16961TPS    CA120889   3.650   1.739   1.559  0.0000  0.0000  0.0000
16961TPS     Si20890   3.650   1.739   1.373  0.0000  0.0000  0.0000
16961TPS    CA620891   3.691   1.853   1.631  0.0000  0.0000  0.0000
16961TPS    HH620892   3.706   1.949   1.582  0.0000  0.0000  0.0000
16961TPS    CA520893   3.714   1.846   1.770  0.0000  0.0000  0.0000
16961TPS    HA520894   3.746   1.933   1.825  0.0000  0.0000  0.0000
16961TPS    CA420895   3.691   1.725   1.838  0.0000  0.0000  0.0000
16961TPS    HA420896   3.710   1.719   1.945  0.0000  0.0000  0.0000
16961TPS    CA320897   3.644   1.613   1.768  0.0000  0.0000  0.0000
16961TPS    HA320898   3.627   1.520   1.822  0.0000  0.0000  0.0000
16962TPS    HA220899   4.347   4.891   8.220  0.0000  0.0000  0.0000
16962TPS    CA220900   4.281   4.823   8.169  0.0000  0.0000  0.0000
16962TPS    CA120901   4.190   4.741   8.239  0.0000  0.0000  0.0000
16962TPS     Si20902   4.190   4.741   8.425  0.0000  0.0000  0.0000
16962TPS    CA620903   4.112   4.648   8.167  0.0000  0.0000  0.0000
16962TPS    HH620904   4.037   4.587   8.216  0.0000  0.0000  0.0000
16962TPS    CA520905   4.129   4.633   8.028  0.0000  0.0000  0.0000
16962TPS    HA520906   4.070   4.561   7.973  0.0000  0.0000  0.0000
16962TPS    CA420907   4.222   4.712   7.960  0.0000  0.0000  0.0000
16962TPS    HA420908   4.237   4.699   7.853  0.0000  0.0000  0.0000
16962TPS    CA320909   4.296   4.809   8.030  0.0000  0.0000  0.0000
16962TPS    HA320910   4.368   4.871   7.976  0.0000  0.0000  0.0000
16963TPS    HA220911   8.637   6.675   1.394  0.0000  0.0000  0.0000
16963TPS    CA220912   8.544   6.652   1.445  0.0000  0.0000  0.0000
16963TPS    CA120913   8.428   6.614   1.375  0.0000  0.0000  0.0000
16963TPS     Si20914   8.428   6.614   1.189  0.0000  0.0000  0.0000
16963TPS    CA620915   8.309   6.592   1.447  0.0000  0.0000  0.0000
16963TPS    HH620916   8.218   6.558   1.398  0.0000  0.0000  0.0000
16963TPS    CA520917   8.304   6.616   1.586  0.0000  0.0000  0.0000
16963TPS    HA520918   8.212   6.600   1.641  0.0000  0.0000  0.0000
16963TPS    CA420919   8.419   6.656   1.654  0.0000  0.0000  0.0000
16963TPS    HA420920   8.415   6.676   1.761  0.0000  0.0000  0.0000
16963TPS    CA320921   8.540   6.672   1.584  0.0000  0.0000  0.0000
16963TPS    HA320922   8.629   6.703   1.638  0.0000  0.0000  0.0000
16964TPS    HA220923   6.560   2.371   1.605  0.0000  0.0000  0.0000
16964TPS    CA220924   6.474   2.413   1.656  0.0000  0.0000  0.0000
16964TPS    CA120925   6.361   2.459   1.586  0.0000  0.0000  0.0000
16964TPS     Si20926   6.361   2.459   1.400  0.0000  0.0000  0.0000
16964TPS    CA620927   6.256   2.519   1.658  0.0000  0.0000  0.0000
16964TPS    HH620928   6.164   2.551   1.609  0.0000  0.0000  0.0000
16964TPS    CA520929   6.267   2.540   1.797  0.0000  0.0000  0.0000
16964TPS    HA520930   6.186   2.587   1.852  0.0000  0.0000  0.0000
16964TPS    CA420931   6.382   2.497   1.865  0.0000  0.0000  0.0000
16964TPS    HA420932   6.391   2.515   1.972  0.0000  0.0000  0.0000
16964TPS    CA320933   6.484   2.431   1.795  0.0000  0.0000  0.0000
16964TPS    HA320934   6.572   2.398   1.849  0.0000  0.0000  0.0000
16965TPS    HA220935   8.283   8.815   8.166  0.0000  0.0000  0.0000
16965TPS    CA220936   8.310   8.723   8.115  0.0000  0.0000  0.0000
16965TPS    CA120937   8.335   8.604   8.185  0.0000  0.0000  0.0000
16965TPS     Si20938   8.335   8.604   8.371  0.0000  0.0000  0.0000
16965TPS    CA620939   8.376   8.490   8.113  0.0000  0.0000  0.0000
16965TPS    HH620940   8.391   8.394   8.162  0.0000  0.0000  0.0000
16965TPS    CA520941   8.399   8.497   7.974  0.0000  0.0000  0.0000
16965TPS    HA520942   8.431   8.410   7.919  0.0000  0.0000  0.0000
16965TPS    CA420943   8.376   8.618   7.906  0.0000  0.0000  0.0000
16965TPS    HA420944   8.395   8.624   7.799  0.0000  0.0000  0.0000
16965TPS    CA320945   8.329   8.730   7.976  0.0000  0.0000  0.0000
16965TPS    HA320946   8.312   8.823   7.922  0.0000  0.0000  0.0000
16966TPS    HA220947   9.256   9.478   8.156  0.0000  0.0000  0.0000
16966TPS    CA220948   9.283   9.386   8.105  0.0000  0.0000  0.0000
16966TPS    CA120949   9.308   9.267   8.175  0.0000  0.0000  0.0000
16966TPS     Si20950   9.308   9.267   8.361  0.0000  0.0000  0.0000
16966TPS    CA620951   9.349   9.153   8.103  0.0000  0.0000  0.0000
16966TPS    HH620952   9.364   9.057   8.152  0.0000  0.0000  0.0000
16966TPS    CA520953   9.372   9.160   7.964  0.0000  0.0000  0.0000
16966TPS    HA520954   9.404   9.073   7.909  0.0000  0.0000  0.0000
16966TPS    CA420955   9.349   9.281   7.896  0.0000  0.0000  0.0000
16966TPS    HA420956   9.368   9.287   7.789  0.0000  0.0000  0.0000
16966TPS    CA320957   9.302   9.393   7.966  0.0000  0.0000  0.0000
16966TPS    HA320958   9.285   9.486   7.912  0.0000  0.0000  0.0000
16967TPS    HA220959   1.848   1.883   1.377  0.0000  0.0000  0.0000
16967TPS    CA220960   1.875   1.975   1.428  0.0000  0.0000  0.0000
16967TPS    CA120961   1.900   2.094   1.358  0.0000  0.0000  0.0000
16967TPS     Si20962   1.900   2.094   1.172  0.0000  0.0000  0.0000
16967TPS    CA620963   1.941   2.208   1.430  0.0000  0.0000  0.0000
16967TPS    HH620964   1.956   2.304   1.381  0.0000  0.0000  0.0000
16967TPS    CA520965   1.964   2.201   1.569  0.0000  0.0000  0.0000
16967TPS    HA520966   1.996   2.288   1.624  0.0000  0.0000  0.0000
16967TPS    CA420967   1.941   2.080   1.637  0.0000  0.0000  0.0000
16967TPS    HA420968   1.960   2.074   1.744  0.0000  0.0000  0.0000
16967TPS    CA320969   1.894   1.968   1.567  0.0000  0.0000  0.0000
16967TPS    HA320970   1.877   1.875   1.621  0.0000  0.0000  0.0000
16968TPS    HA220971   8.086   4.735   1.456  0.0000  0.0000  0.0000
16968TPS    CA220972   8.047   4.822   1.507  0.0000  0.0000  0.0000
16968TPS    CA120973   7.990   4.930   1.437  0.0000  0.0000  0.0000
16968TPS     Si20974   7.990   4.930   1.251  0.0000  0.0000  0.0000
16968TPS    CA620975   7.948   5.044   1.509  0.0000  0.0000  0.0000
16968TPS    HH620976   7.898   5.127   1.460  0.0000  0.0000  0.0000
16968TPS    CA520977   7.970   5.052   1.648  0.0000  0.0000  0.0000
16968TPS    HA520978   7.939   5.141   1.703  0.0000  0.0000  0.0000
16968TPS    CA420979   8.030   4.946   1.716  0.0000  0.0000  0.0000
16968TPS    HA420980   8.049   4.953   1.823  0.0000  0.0000  0.0000
16968TPS    CA320981   8.066   4.830   1.646  0.0000  0.0000  0.0000
16968TPS    HA320982   8.113   4.747   1.700  0.0000  0.0000  0.0000
16969TPS    HA220983   9.270   5.780   1.331  0.0000  0.0000  0.0000
16969TPS    CA220984   9.297   5.872   1.382  0.0000  0.0000  0.0000
16969TPS    CA120985   9.322   5.991   1.312  0.0000  0.0000  0.0000
16969TPS     Si20986   9.322   5.991   1.126  0.0000  0.0000  0.0000
16969TPS    CA620987   9.363   6.105   1.384  0.0000  0.0000  0.0000
16969TPS    HH620988   9.378   6.201   1.335  0.0000  0.0000  0.0000
16969TPS    CA520989   9.386   6.098   1.523  0.0000  0.0000  0.0000
16969TPS    HA520990   9.418   6.185   1.578  0.0000  0.0000  0.0000
16969TPS    CA420991   9.363   5.977   1.591  0.0000  0.0000  0.0000
16969TPS    HA420992   9.382   5.971   1.698  0.0000  0.0000  0.0000
16969TPS    CA320993   9.316   5.865   1.521  0.0000  0.0000  0.0000
16969TPS    HA320994   9.299   5.772   1.575  0.0000  0.0000  0.0000
16970TPS    HA220995   3.264   9.380   8.196  0.0000  0.0000  0.0000
16970TPS    CA220996   3.291   9.288   8.145  0.0000  0.0000  0.0000
16970TPS    CA120997   3.316   9.169   8.215  0.0000  0.0000  0.0000
16970TPS     Si20998   3.316   9.169   8.401  0.0000  0.0000  0.0000
16970TPS    CA620999   3.357   9.055   8.143  0.0000  0.0000  0.0000
16970TPS    HH621000   3.372   8.959   8.192  0.0000  0.0000  0.0000
16970TPS    CA521001   3.380   9.062   8.004  0.0000  0.0000  0.0000
16970TPS    HA521002   3.412   8.975   7.949  0.0000  0.0000  0.0000
16970TPS    CA421003   3.357   9.183   7.936  0.0000  0.0000  0.0000
16970TPS    HA421004   3.376   9.189   7.829  0.0000  0.0000  0.0000
16970TPS    CA321005   3.310   9.295   8.006  0.0000  0.0000  0.0000
16970TPS    HA321006   3.293   9.388   7.952  0.0000  0.0000  0.0000
16971TPS    HA221007   1.531   4.945   1.459  0.0000  0.0000  0.0000
16971TPS    CA221008   1.492   5.032   1.510  0.0000  0.0000  0.0000
16971TPS    CA121009   1.435   5.140   1.440  0.0000  0.0000  0.0000
16971TPS     Si21010   1.435   5.140   1.254  0.0000  0.0000  0.0000
16971TPS    CA621011   1.393   5.254   1.512  0.0000  0.0000  0.0000
16971TPS    HH621012   1.343   5.337   1.463  0.0000  0.0000  0.0000
16971TPS    CA521013   1.415   5.262   1.651  0.0000  0.0000  0.0000
16971TPS    HA521014   1.384   5.351   1.706  0.0000  0.0000  0.0000
16971TPS    CA421015   1.475   5.156   1.719  0.0000  0.0000  0.0000
16971TPS    HA421016   1.494   5.163   1.826  0.0000  0.0000  0.0000
16971TPS    CA321017   1.511   5.040   1.649  0.0000  0.0000  0.0000
16971TPS    HA321018   1.558   4.957   1.703  0.0000  0.0000  0.0000
16972TPS    HA221019   7.786   9.106   1.618  0.0000  0.0000  0.0000
16972TPS    CA221020   7.691   9.117   1.669  0.0000  0.0000  0.0000
16972TPS    CA121021   7.569   9.121   1.599  0.0000  0.0000  0.0000
16972TPS     Si21022   7.569   9.121   1.413  0.0000  0.0000  0.0000
16972TPS    CA621023   7.449   9.142   1.671  0.0000  0.0000  0.0000
16972TPS    HH621024   7.353   9.140   1.622  0.0000  0.0000  0.0000
16972TPS    CA521025   7.453   9.165   1.810  0.0000  0.0000  0.0000
16972TPS    HA521026   7.361   9.182   1.865  0.0000  0.0000  0.0000
16972TPS    CA421027   7.575   9.164   1.878  0.0000  0.0000  0.0000
16972TPS    HA421028   7.578   9.184   1.985  0.0000  0.0000  0.0000
16972TPS    CA321029   7.694   9.137   1.808  0.0000  0.0000  0.0000
16972TPS    HA321030   7.788   9.136   1.862  0.0000  0.0000  0.0000
16973TPS    HA221031   2.574   3.105   1.460  0.0000  0.0000  0.0000
16973TPS    CA221032   2.669   3.094   1.511  0.0000  0.0000  0.0000
16973TPS    CA121033   2.791   3.090   1.441  0.0000  0.0000  0.0000
16973TPS     Si21034   2.791   3.090   1.255  0.0000  0.0000  0.0000
16973TPS    CA621035   2.911   3.069   1.513  0.0000  0.0000  0.0000
16973TPS    HH621036   3.007   3.071   1.464  0.0000  0.0000  0.0000
16973TPS    CA521037   2.907   3.046   1.652  0.0000  0.0000  0.0000
16973TPS    HA521038   2.999   3.029   1.707  0.0000  0.0000  0.0000
16973TPS    CA421039   2.785   3.047   1.720  0.0000  0.0000  0.0000
16973TPS    HA421040   2.782   3.027   1.827  0.0000  0.0000  0.0000
16973TPS    CA321041   2.666   3.074   1.650  0.0000  0.0000  0.0000
16973TPS    HA321042   2.572   3.075   1.704  0.0000  0.0000  0.0000
16974TPS    HA221043   4.853   8.466   8.101  0.0000  0.0000  0.0000
16974TPS    CA221044   4.880   8.374   8.050  0.0000  0.0000  0.0000
16974TPS    CA121045   4.905   8.255   8.120  0.0000  0.0000  0.0000
16974TPS     Si21046   4.905   8.255   8.306  0.0000  0.0000  0.0000
16974TPS    CA621047   4.946   8.141   8.048  0.0000  0.0000  0.0000
16974TPS    HH621048   4.961   8.045   8.097  0.0000  0.0000  0.0000
16974TPS    CA521049   4.969   8.148   7.909  0.0000  0.0000  0.0000
16974TPS    HA521050   5.001   8.061   7.854  0.0000  0.0000  0.0000
16974TPS    CA421051   4.946   8.269   7.841  0.0000  0.0000  0.0000
16974TPS    HA421052   4.965   8.275   7.734  0.0000  0.0000  0.0000
16974TPS    CA321053   4.899   8.381   7.911  0.0000  0.0000  0.0000
16974TPS    HA321054   4.882   8.474   7.857  0.0000  0.0000  0.0000
16975TPS    HA221055   5.466   4.129   8.091  0.0000  0.0000  0.0000
16975TPS    CA221056   5.493   4.037   8.040  0.0000  0.0000  0.0000
16975TPS    CA121057   5.518   3.918   8.110  0.0000  0.0000  0.0000
16975TPS     Si21058   5.518   3.918   8.296  0.0000  0.0000  0.0000
16975TPS    CA621059   5.559   3.804   8.038  0.0000  0.0000  0.0000
16975TPS    HH621060   5.574   3.708   8.087  0.0000  0.0000  0.0000
16975TPS    CA521061   5.582   3.811   7.899  0.0000  0.0000  0.0000
16975TPS    HA521062   5.614   3.724   7.844  0.0000  0.0000  0.0000
16975TPS    CA421063   5.559   3.932   7.831  0.0000  0.0000  0.0000
16975TPS    HA421064   5.578   3.938   7.724  0.0000  0.0000  0.0000
16975TPS    CA321065   5.512   4.044   7.901  0.0000  0.0000  0.0000
16975TPS    HA321066   5.495   4.137   7.847  0.0000  0.0000  0.0000
16976TPS    HA221067   7.529   8.476   8.036  0.0000  0.0000  0.0000
16976TPS    CA221068   7.523   8.381   7.985  0.0000  0.0000  0.0000
16976TPS    CA121069   7.506   8.260   8.055  0.0000  0.0000  0.0000
16976TPS     Si21070   7.506   8.260   8.241  0.0000  0.0000  0.0000
16976TPS    CA621071   7.506   8.139   7.983  0.0000  0.0000  0.0000
16976TPS    HH621072   7.487   8.044   8.032  0.0000  0.0000  0.0000
16976TPS    CA521073   7.529   8.138   7.844  0.0000  0.0000  0.0000
16976TPS    HA521074   7.530   8.045   7.789  0.0000  0.0000  0.0000
16976TPS    CA421075   7.549   8.259   7.776  0.0000  0.0000  0.0000
16976TPS    HA421076   7.569   8.258   7.669  0.0000  0.0000  0.0000
16976TPS    CA321077   7.543   8.380   7.846  0.0000  0.0000  0.0000
16976TPS    HA321078   7.559   8.473   7.792  0.0000  0.0000  0.0000
16977TPS    HA221079   3.908   0.332   1.604  0.0000  0.0000  0.0000
16977TPS    CA221080   3.869   0.419   1.655  0.0000  0.0000  0.0000
16977TPS    CA121081   3.812   0.527   1.585  0.0000  0.0000  0.0000
16977TPS     Si21082   3.812   0.527   1.399  0.0000  0.0000  0.0000
16977TPS    CA621083   3.770   0.641   1.657  0.0000  0.0000  0.0000
16977TPS    HH621084   3.720   0.724   1.608  0.0000  0.0000  0.0000
16977TPS    CA521085   3.792   0.649   1.796  0.0000  0.0000  0.0000
16977TPS    HA521086   3.761   0.738   1.851  0.0000  0.0000  0.0000
16977TPS    CA421087   3.852   0.543   1.864  0.0000  0.0000  0.0000
16977TPS    HA421088   3.871   0.550   1.971  0.0000  0.0000  0.0000
16977TPS    CA321089   3.888   0.427   1.794  0.0000  0.0000  0.0000
16977TPS    HA321090   3.935   0.344   1.848  0.0000  0.0000  0.0000
16978TPS    HA221091   3.839   7.642   8.090  0.0000  0.0000  0.0000
16978TPS    CA221092   3.783   7.720   8.039  0.0000  0.0000  0.0000
16978TPS    CA121093   3.718   7.823   8.109  0.0000  0.0000  0.0000
16978TPS     Si21094   3.718   7.823   8.295  0.0000  0.0000  0.0000
16978TPS    CA621095   3.640   7.916   8.037  0.0000  0.0000  0.0000
16978TPS    HH621096   3.593   8.001   8.086  0.0000  0.0000  0.0000
16978TPS    CA521097   3.622   7.901   7.898  0.0000  0.0000  0.0000
16978TPS    HA521098   3.561   7.973   7.843  0.0000  0.0000  0.0000
16978TPS    CA421099   3.684   7.796   7.830  0.0000  0.0000  0.0000
16978TPS    HA421100   3.668   7.784   7.723  0.0000  0.0000  0.0000
16978TPS    CA321101   3.767   7.707   7.900  0.0000  0.0000  0.0000
16978TPS    HA321102   3.815   7.625   7.846  0.0000  0.0000  0.0000
16979TPS    HA221103   5.153   1.159   8.194  0.0000  0.0000  0.0000
16979TPS    CA221104   5.180   1.067   8.143  0.0000  0.0000  0.0000
16979TPS    CA121105   5.205   0.948   8.213  0.0000  0.0000  0.0000
16979TPS     Si21106   5.205   0.948   8.399  0.0000  0.0000  0.0000
16979TPS    CA621107   5.246   0.834   8.141  0.0000  0.0000  0.0000
16979TPS    HH621108   5.261   0.738   8.190  0.0000  0.0000  0.0000
16979TPS    CA521109   5.269   0.841   8.002  0.0000  0.0000  0.0000
16979TPS    HA521110   5.301   0.754   7.947  0.0000  0.0000  0.0000
16979TPS    CA421111   5.246   0.962   7.934  0.0000  0.0000  0.0000
16979TPS    HA421112   5.265   0.968   7.827  0.0000  0.0000  0.0000
16979TPS    CA321113   5.199   1.074   8.004  0.0000  0.0000  0.0000
16979TPS    HA321114   5.182   1.167   7.950  0.0000  0.0000  0.0000
16980TPS    HA221115   0.349   3.650   8.076  0.0000  0.0000  0.0000
16980TPS    CA221116   0.283   3.582   8.025  0.0000  0.0000  0.0000
16980TPS    CA121117   0.192   3.500   8.095  0.0000  0.0000  0.0000
16980TPS     Si21118   0.192   3.500   8.281  0.0000  0.0000  0.0000
16980TPS    CA621119   0.114   3.407   8.023  0.0000  0.0000  0.0000
16980TPS    HH621120   0.039   3.346   8.072  0.0000  0.0000  0.0000
16980TPS    CA521121   0.131   3.392   7.884  0.0000  0.0000  0.0000
16980TPS    HA521122   0.072   3.320   7.829  0.0000  0.0000  0.0000
16980TPS    CA421123   0.224   3.471   7.816  0.0000  0.0000  0.0000
16980TPS    HA421124   0.239   3.458   7.709  0.0000  0.0000  0.0000
16980TPS    CA321125   0.298   3.568   7.886  0.0000  0.0000  0.0000
16980TPS    HA321126   0.370   3.630   7.832  0.0000  0.0000  0.0000
16981TPS    HA221127   4.546   1.787   1.480  0.0000  0.0000  0.0000
16981TPS    CA221128   4.573   1.879   1.531  0.0000  0.0000  0.0000
16981TPS    CA121129   4.598   1.998   1.461  0.0000  0.0000  0.0000
16981TPS     Si21130   4.598   1.998   1.275  0.0000  0.0000  0.0000
16981TPS    CA621131   4.639   2.112   1.533  0.0000  0.0000  0.0000
16981TPS    HH621132   4.654   2.208   1.484  0.0000  0.0000  0.0000
16981TPS    CA521133   4.662   2.105   1.672  0.0000  0.0000  0.0000
16981TPS    HA521134   4.694   2.192   1.727  0.0000  0.0000  0.0000
16981TPS    CA421135   4.639   1.984   1.740  0.0000  0.0000  0.0000
16981TPS    HA421136   4.658   1.978   1.847  0.0000  0.0000  0.0000
16981TPS    CA321137   4.592   1.872   1.670  0.0000  0.0000  0.0000
16981TPS    HA321138   4.575   1.779   1.724  0.0000  0.0000  0.0000
16982TPS    HA221139   7.770   7.486   7.952  0.0000  0.0000  0.0000
16982TPS    CA221140   7.797   7.394   7.901  0.0000  0.0000  0.0000
16982TPS    CA121141   7.822   7.275   7.971  0.0000  0.0000  0.0000
16982TPS     Si21142   7.822   7.275   8.157  0.0000  0.0000  0.0000
16982TPS    CA621143   7.863   7.161   7.899  0.0000  0.0000  0.0000
16982TPS    HH621144   7.878   7.065   7.948  0.0000  0.0000  0.0000
16982TPS    CA521145   7.886   7.168   7.760  0.0000  0.0000  0.0000
16982TPS    HA521146   7.918   7.081   7.705  0.0000  0.0000  0.0000
16982TPS    CA421147   7.863   7.289   7.692  0.0000  0.0000  0.0000
16982TPS    HA421148   7.882   7.295   7.585  0.0000  0.0000  0.0000
16982TPS    CA321149   7.816   7.401   7.762  0.0000  0.0000  0.0000
16982TPS    HA321150   7.799   7.494   7.708  0.0000  0.0000  0.0000
16983TPS    HA221151   3.685   8.617   8.086  0.0000  0.0000  0.0000
16983TPS    CA221152   3.712   8.525   8.035  0.0000  0.0000  0.0000
16983TPS    CA121153   3.737   8.406   8.105  0.0000  0.0000  0.0000
16983TPS     Si21154   3.737   8.406   8.291  0.0000  0.0000  0.0000
16983TPS    CA621155   3.778   8.292   8.033  0.0000  0.0000  0.0000
16983TPS    HH621156   3.793   8.196   8.082  0.0000  0.0000  0.0000
16983TPS    CA521157   3.801   8.299   7.894  0.0000  0.0000  0.0000
16983TPS    HA521158   3.833   8.212   7.839  0.0000  0.0000  0.0000
16983TPS    CA421159   3.778   8.420   7.826  0.0000  0.0000  0.0000
16983TPS    HA421160   3.797   8.426   7.719  0.0000  0.0000  0.0000
16983TPS    CA321161   3.731   8.532   7.896  0.0000  0.0000  0.0000
16983TPS    HA321162   3.714   8.625   7.842  0.0000  0.0000  0.0000
16984TPS    HA221163   8.386   7.919   8.081  0.0000  0.0000  0.0000
16984TPS    CA221164   8.413   7.827   8.030  0.0000  0.0000  0.0000
16984TPS    CA121165   8.438   7.708   8.100  0.0000  0.0000  0.0000
16984TPS     Si21166   8.438   7.708   8.286  0.0000  0.0000  0.0000
16984TPS    CA621167   8.479   7.594   8.028  0.0000  0.0000  0.0000
16984TPS    HH621168   8.494   7.498   8.077  0.0000  0.0000  0.0000
16984TPS    CA521169   8.502   7.601   7.889  0.0000  0.0000  0.0000
16984TPS    HA521170   8.534   7.514   7.834  0.0000  0.0000  0.0000
16984TPS    CA421171   8.479   7.722   7.821  0.0000  0.0000  0.0000
16984TPS    HA421172   8.498   7.728   7.714  0.0000  0.0000  0.0000
16984TPS    CA321173   8.432   7.834   7.891  0.0000  0.0000  0.0000
16984TPS    HA321174   8.415   7.927   7.837  0.0000  0.0000  0.0000
16985SL     Si121175   3.718   6.537   1.343  0.0000  0.0000  0.0000
16985SL      O121176   3.718   6.537   1.507  0.0000  0.0000  0.0000
16985SL      H121177   3.718   6.537   1.605  0.0000  0.0000  0.0000
16986SL     Si121178   0.859   2.304   1.416  0.0000  0.0000  0.0000
16986SL      O121179   0.859   2.304   1.580  0.0000  0.0000  0.0000
16986SL      H121180   0.859   2.304   1.678  0.0000  0.0000  0.0000
16987SL     Si121181   2.722   1.436   8.385  0.0000  0.0000  0.0000
16987SL      O121182   2.722   1.436   8.221  0.0000  0.0000  0.0000
16987SL      H121183   2.722   1.436   8.123  0.0000  0.0000  0.0000
16988SL     Si121184   8.645   2.641   8.405  0.0000  0.0000  0.0000
16988SL      O121185   8.645   2.641   8.241  0.0000  0.0000  0.0000
16988SL      H121186   8.645   2.641   8.143  0.0000  0.0000  0.0000
16989SL     Si121187   5.570   4.265   8.421  0.0000  0.0000  0.0000
16989SL      O121188   5.570   4.265   8.257  0.0000  0.0000  0.0000
16989SL      H121189   5.570   4.265   8.159  0.0000  0.0000  0.0000
16990SL     Si121190   7.538   2.498   1.289  0.0000  0.0000  0.0000
16990SL      O121191   7.538   2.498   1.453  0.0000  0.0000  0.0000
16990SL      H121192   7.538   2.498   1.551  0.0000  0.0000  0.0000
16991SL     Si121193   2.259   3.733   8.304  0.0000  0.0000  0.0000
16991SL      O121194   2.259   3.733   8.140  0.0000  0.0000  0.0000
16991SL      H121195   2.259   3.733   8.042  0.0000  0.0000  0.0000
16992SL     Si121196   3.012   5.153   1.161  0.0000  0.0000  0.0000
16992SL      O121197   3.012   5.153   1.325  0.0000  0.0000  0.0000
16992SL      H121198   3.012   5.153   1.423  0.0000  0.0000  0.0000
16993SL     Si121199   5.588   5.008   1.294  0.0000  0.0000  0.0000
16993SL      O121200   5.588   5.008   1.458  0.0000  0.0000  0.0000
16993SL      H121201   5.588   5.008   1.556  0.0000  0.0000  0.0000
16994SL     Si121202   5.942   9.189   8.317  0.0000  0.0000  0.0000
16994SL      O121203   5.942   9.189   8.153  0.0000  0.0000  0.0000
16994SL      H121204   5.942   9.189   8.055  0.0000  0.0000  0.0000
16995SL     Si121205   6.343   5.045   1.199  0.0000  0.0000  0.0000
16995SL      O121206   6.343   5.045   1.363  0.0000  0.0000  0.0000
16995SL      H121207   6.343   5.045   1.461  0.0000  0.0000  0.0000
16996SL     Si121208   0.975   1.598   1.243  0.0000  0.0000  0.0000
16996SL      O121209   0.975   1.598   1.407  0.0000  0.0000  0.0000
16996SL      H121210   0.975   1.598   1.505  0.0000  0.0000  0.0000
16997SL     Si121211   6.935   7.922   1.213  0.0000  0.0000  0.0000
16997SL      O121212   6.935   7.922   1.377  0.0000  0.0000  0.0000
16997SL      H121213   6.935   7.922   1.475  0.0000  0.0000  0.0000
16998SL     Si121214   0.544   8.457   1.374  0.0000  0.0000  0.0000
16998SL      O121215   0.544   8.457   1.538  0.0000  0.0000  0.0000
16998SL      H121216   0.544   8.457   1.636  0.0000  0.0000  0.0000
16999SL     Si121217   5.490   3.611   8.236  0.0000  0.0000  0.0000
16999SL      O121218   5.490   3.611   8.072  0.0000  0.0000  0.0000
16999SL      H121219   5.490   3.611   7.974  0.0000  0.0000  0.0000
17000SL     Si121220   7.269   1.094   8.223  0.0000  0.0000  0.0000
17000SL      O121221   7.269   1.094   8.059  0.0000  0.0000  0.0000
17000SL      H121222   7.269   1.094   7.961  0.0000  0.0000  0.0000
17001SL     Si121223   8.145   3.891   8.272  0.0000  0.0000  0.0000
17001SL      O121224   8.145   3.891   8.108  0.0000  0.0000  0.0000
17001SL      H121225   8.145   3.891   8.010  0.0000  0.0000  0.0000
17002SL     Si121226   4.113   8.803   8.240  0.0000  0.0000  0.0000
17002SL      O121227   4.113   8.803   8.076  0.0000  0.0000  0.0000
17002SL      H121228   4.113   8.803   7.978  0.0000  0.0000  0.0000
17003SL     Si121229   2.513   4.556   8.317  0.0000  0.0000  0.0000
17003SL      O121230   2.513   4.556   8.153  0.0000  0.0000  0.0000
17003SL      H121231   2.513   4.556   8.055  0.0000  0.0000  0.0000
17004SL     Si121232   8.880   2.080   8.213  0.0000  0.0000  0.0000
17004SL      O121233   8.880   2.080   8.049  0.0000  0.0000  0.0000
17004SL      H121234   8.880   2.080   7.951  0.0000  0.0000  0.0000
17005SL     Si121235   9.387   0.117   1.137  0.0000  0.0000  0.0000
17005SL      O121236   9.387   0.117   1.301  0.0000  0.0000  0.0000
17005SL      H121237   9.387   0.117   1.399  0.0000  0.0000  0.0000
17006SL     Si121238   0.249   9.420   8.311  0.0000  0.0000  0.0000
17006SL      O121239   0.249   9.420   8.147  0.0000  0.0000  0.0000
17006SL      H121240   0.249   9.420   8.049  0.0000  0.0000  0.0000
17007SL     Si121241   8.727   2.819   1.324  0.0000  0.0000  0.0000
17007SL      O121242   8.727   2.819   1.488  0.0000  0.0000  0.0000
17007SL      H121243   8.727   2.819   1.586  0.0000  0.0000  0.0000
17008SL     Si121244   8.283   8.135   8.334  0.0000  0.0000  0.0000
17008SL      O121245   8.283   8.135   8.170  0.0000  0.0000  0.0000
17008SL      H121246   8.283   8.135   8.072  0.0000  0.0000  0.0000
17009SL     Si121247   2.034   1.722   1.327  0.0000  0.0000  0.0000
17009SL      O121248   2.034   1.722   1.491  0.0000  0.0000  0.0000
17009SL      H121249   2.034   1.722   1.589  0.0000  0.0000  0.0000
17010SL     Si121250   8.423   1.478   1.261  0.0000  0.0000  0.0000
17010SL      O121251   8.423   1.478   1.425  0.0000  0.0000  0.0000
17010SL      H121252   8.423   1.478   1.523  0.0000  0.0000  0.0000
17011SL     Si121253   1.492   6.341   8.271  0.0000  0.0000  0.0000
17011SL      O121254   1.492   6.341   8.107  0.0000  0.0000  0.0000
17011SL      H121255   1.492   6.341   8.009  0.0000  0.0000  0.0000
17012SL     Si121256   6.692   7.483   1.434  0.0000  0.0000  0.0000
17012SL      O121257   6.692   7.483   1.598  0.0000  0.0000  0.0000
17012SL      H121258   6.692   7.483   1.696  0.0000  0.0000  0.0000
17013SL     Si121259   7.835   8.238   1.143  0.0000  0.0000  0.0000
17013SL      O121260   7.835   8.238   1.307  0.0000  0.0000  0.0000
17013SL      H121261   7.835   8.238   1.405  0.0000  0.0000  0.0000
17014SL     Si121262   0.763   8.666   1.401  0.0000  0.0000  0.0000
17014SL      O121263   0.763   8.666   1.565  0.0000  0.0000  0.0000
17014SL      H121264   0.763   8.666   1.663  0.0000  0.0000  0.0000
17015SL     Si121265   8.966   6.995   8.231  0.0000  0.0000  0.0000
17015SL      O121266   8.966   6.995   8.067  0.0000  0.0000  0.0000
17015SL      H121267   8.966   6.995   7.969  0.0000  0.0000  0.0000
17016SL     Si121268   0.941   5.907   8.294  0.0000  0.0000  0.0000
17016SL      O121269   0.941   5.907   8.130  0.0000  0.0000  0.0000
17016SL      H121270   0.941   5.907   8.032  0.0000  0.0000  0.0000
17017SL     Si121271   5.597   3.178   8.175  0.0000  0.0000  0.0000
17017SL      O121272   5.597   3.178   8.011  0.0000  0.0000  0.0000
17017SL      H121273   5.597   3.178   7.913  0.0000  0.0000  0.0000
17018SL     Si121274   7.011   1.647   8.198  0.0000  0.0000  0.0000
17018SL      O121275   7.011   1.647   8.034  0.0000  0.0000  0.0000
17018SL      H121276   7.011   1.647   7.936  0.0000  0.0000  0.0000
17019SL     Si121277   2.193   2.427   8.497  0.0000  0.0000  0.0000
17019SL      O121278   2.193   2.427   8.333  0.0000  0.0000  0.0000
17019SL      H121279   2.193   2.427   8.235  0.0000  0.0000  0.0000
17020SL     Si121280   2.856   2.473   1.177  0.0000  0.0000  0.0000
17020SL      O121281   2.856   2.473   1.341  0.0000  0.0000  0.0000
17020SL      H121282   2.856   2.473   1.439  0.0000  0.0000  0.0000
17021SL     Si121283   2.800   3.603   8.276  0.0000  0.0000  0.0000
17021SL      O121284   2.800   3.603   8.112  0.0000  0.0000  0.0000
17021SL      H121285   2.800   3.603   8.014  0.0000  0.0000  0.0000
17022SL     Si121286   3.889   9.181   8.292  0.0000  0.0000  0.0000
17022SL      O121287   3.889   9.181   8.128  0.0000  0.0000  0.0000
17022SL      H121288   3.889   9.181   8.030  0.0000  0.0000  0.0000
17023SL     Si121289   1.872   4.907   8.322  0.0000  0.0000  0.0000
17023SL      O121290   1.872   4.907   8.158  0.0000  0.0000  0.0000
17023SL      H121291   1.872   4.907   8.060  0.0000  0.0000  0.0000
17024SL     Si121292   5.193   3.579   1.296  0.0000  0.0000  0.0000
17024SL      O121293   5.193   3.579   1.460  0.0000  0.0000  0.0000
17024SL      H121294   5.193   3.579   1.558  0.0000  0.0000  0.0000
17025SL     Si121295   3.834   2.901   1.366  0.0000  0.0000  0.0000
17025SL      O121296   3.834   2.901   1.530  0.0000  0.0000  0.0000
17025SL      H121297   3.834   2.901   1.628  0.0000  0.0000  0.0000
17026SL     Si121298   2.962   8.283   8.180  0.0000  0.0000  0.0000
17026SL      O121299   2.962   8.283   8.016  0.0000  0.0000  0.0000
17026SL      H121300   2.962   8.283   7.918  0.0000  0.0000  0.0000
17027SL     Si121301   2.014   8.158   1.247  0.0000  0.0000  0.0000
17027SL      O121302   2.014   8.158   1.411  0.0000  0.0000  0.0000
17027SL      H121303   2.014   8.158   1.509  0.0000  0.0000  0.0000
17028SL     Si121304   7.617   4.768   1.235  0.0000  0.0000  0.0000
17028SL      O121305   7.617   4.768   1.399  0.0000  0.0000  0.0000
17028SL      H121306   7.617   4.768   1.497  0.0000  0.0000  0.0000
17029SL     Si121307   3.546   0.849   1.164  0.0000  0.0000  0.0000
17029SL      O121308   3.546   0.849   1.328  0.0000  0.0000  0.0000
17029SL      H121309   3.546   0.849   1.426  0.0000  0.0000  0.0000
17030SL     Si121310   0.650   0.656   1.223  0.0000  0.0000  0.0000
17030SL      O121311   0.650   0.656   1.387  0.0000  0.0000  0.0000
17030SL      H121312   0.650   0.656   1.485  0.0000  0.0000  0.0000
17031SL     Si121313   1.810   1.041   8.393  0.0000  0.0000  0.0000
17031SL      O121314   1.810   1.041   8.229  0.0000  0.0000  0.0000
17031SL      H121315   1.810   1.041   8.131  0.0000  0.0000  0.0000
17032SL     Si121316   7.509   1.490   1.220  0.0000  0.0000  0.0000
17032SL      O121317   7.509   1.490   1.384  0.0000  0.0000  0.0000
17032SL      H121318   7.509   1.490   1.482  0.0000  0.0000  0.0000
17033SL     Si121319   1.403   9.220   8.243  0.0000  0.0000  0.0000
17033SL      O121320   1.403   9.220   8.079  0.0000  0.0000  0.0000
17033SL      H121321   1.403   9.220   7.981  0.0000  0.0000  0.0000
17034SL     Si121322   8.825   3.693   8.406  0.0000  0.0000  0.0000
17034SL      O121323   8.825   3.693   8.242  0.0000  0.0000  0.0000
17034SL      H121324   8.825   3.693   8.144  0.0000  0.0000  0.0000
17035SL     Si121325   4.850   4.396   8.262  0.0000  0.0000  0.0000
17035SL      O121326   4.850   4.396   8.098  0.0000  0.0000  0.0000
17035SL      H121327   4.850   4.396   8.000  0.0000  0.0000  0.0000
17036SL     Si121328   0.993   8.428   8.328  0.0000  0.0000  0.0000
17036SL      O121329   0.993   8.428   8.164  0.0000  0.0000  0.0000
17036SL      H121330   0.993   8.428   8.066  0.0000  0.0000  0.0000
17037SL     Si121331   2.704   1.299   1.145  0.0000  0.0000  0.0000
17037SL      O121332   2.704   1.299   1.309  0.0000  0.0000  0.0000
17037SL      H121333   2.704   1.299   1.407  0.0000  0.0000  0.0000
17038SL     Si121334   7.686   5.272   1.336  0.0000  0.0000  0.0000
17038SL      O121335   7.686   5.272   1.500  0.0000  0.0000  0.0000
17038SL      H121336   7.686   5.272   1.598  0.0000  0.0000  0.0000
17039SL     Si121337   2.168   5.346   8.339  0.0000  0.0000  0.0000
17039SL      O121338   2.168   5.346   8.175  0.0000  0.0000  0.0000
17039SL      H121339   2.168   5.346   8.077  0.0000  0.0000  0.0000
17040SL     Si121340   9.482   5.069   1.320  0.0000  0.0000  0.0000
17040SL      O121341   9.482   5.069   1.484  0.0000  0.0000  0.0000
17040SL      H121342   9.482   5.069   1.582  0.0000  0.0000  0.0000
17041SL     Si121343   2.388   7.067   1.407  0.0000  0.0000  0.0000
17041SL      O121344   2.388   7.067   1.571  0.0000  0.0000  0.0000
17041SL      H121345   2.388   7.067   1.669  0.0000  0.0000  0.0000
17042SL     Si121346   5.888   4.981   1.354  0.0000  0.0000  0.0000
17042SL      O121347   5.888   4.981   1.518  0.0000  0.0000  0.0000
17042SL      H121348   5.888   4.981   1.616  0.0000  0.0000  0.0000
17043SL     Si121349   4.714   5.602   8.208  0.0000  0.0000  0.0000
17043SL      O121350   4.714   5.602   8.044  0.0000  0.0000  0.0000
17043SL      H121351   4.714   5.602   7.946  0.0000  0.0000  0.0000
17044SL     Si121352   4.097   0.178   1.196  0.0000  0.0000  0.0000
17044SL      O121353   4.097   0.178   1.360  0.0000  0.0000  0.0000
17044SL      H121354   4.097   0.178   1.458  0.0000  0.0000  0.0000
17045SL     Si121355   5.952   2.285   8.267  0.0000  0.0000  0.0000
17045SL      O121356   5.952   2.285   8.103  0.0000  0.0000  0.0000
17045SL      H121357   5.952   2.285   8.005  0.0000  0.0000  0.0000
17046SL     Si121358   6.659   8.015   1.300  0.0000  0.0000  0.0000
17046SL      O121359   6.659   8.015   1.464  0.0000  0.0000  0.0000
17046SL      H121360   6.659   8.015   1.562  0.0000  0.0000  0.0000
17047SL     Si121361   4.956   1.209   1.234  0.0000  0.0000  0.0000
17047SL      O121362   4.956   1.209   1.398  0.0000  0.0000  0.0000
17047SL      H121363   4.956   1.209   1.496  0.0000  0.0000  0.0000
17048SL     Si121364   2.845   8.088   8.370  0.0000  0.0000  0.0000
17048SL      O121365   2.845   8.088   8.206  0.0000  0.0000  0.0000
17048SL      H121366   2.845   8.088   8.108  0.0000  0.0000  0.0000
17049SL     Si121367   9.581   1.091   8.335  0.0000  0.0000  0.0000
17049SL      O121368   9.581   1.091   8.171  0.0000  0.0000  0.0000
17049SL      H121369   9.581   1.091   8.073  0.0000  0.0000  0.0000
17050SL     Si121370   5.262   0.008   8.265  0.0000  0.0000  0.0000
17050SL      O121371   5.262   0.008   8.101  0.0000  0.0000  0.0000
17050SL      H121372   5.262   0.008   8.003  0.0000  0.0000  0.0000
17051SL     Si121373   2.146   6.828   8.272  0.0000  0.0000  0.0000
17051SL      O121374   2.146   6.828   8.108  0.0000  0.0000  0.0000
17051SL      H121375   2.146   6.828   8.010  0.0000  0.0000  0.0000
17052SL     Si121376   3.407   3.954   8.324  0.0000  0.0000  0.0000
17052SL      O121377   3.407   3.954   8.160  0.0000  0.0000  0.0000
17052SL      H121378   3.407   3.954   8.062  0.0000  0.0000  0.0000
17053SL     Si121379   2.663   2.070   8.380  0.0000  0.0000  0.0000
17053SL      O121380   2.663   2.070   8.216  0.0000  0.0000  0.0000
17053SL      H121381   2.663   2.070   8.118  0.0000  0.0000  0.0000
17054SL     Si121382   0.620   7.388   1.334  0.0000  0.0000  0.0000
17054SL      O121383   0.620   7.388   1.498  0.0000  0.0000  0.0000
17054SL      H121384   0.620   7.388   1.596  0.0000  0.0000  0.0000
17055SL     Si121385   2.072   6.206   1.300  0.0000  0.0000  0.0000
17055SL      O121386   2.072   6.206   1.464  0.0000  0.0000  0.0000
17055SL      H121387   2.072   6.206   1.562  0.0000  0.0000  0.0000
17056SL     Si121388   6.957   4.372   1.191  0.0000  0.0000  0.0000
17056SL      O121389   6.957   4.372   1.355  0.0000  0.0000  0.0000
17056SL      H121390   6.957   4.372   1.453  0.0000  0.0000  0.0000
17057SL     Si121391   3.453   3.195   1.127  0.0000  0.0000  0.0000
17057SL      O121392   3.453   3.195   1.291  0.0000  0.0000  0.0000
17057SL      H121393   3.453   3.195   1.389  0.0000  0.0000  0.0000
17058SL     Si121394   1.878   8.134   8.374  0.0000  0.0000  0.0000
17058SL      O121395   1.878   8.134   8.210  0.0000  0.0000  0.0000
17058SL      H121396   1.878   8.134   8.112  0.0000  0.0000  0.0000
17059SL     Si121397   7.908   6.582   1.217  0.0000  0.0000  0.0000
17059SL      O121398   7.908   6.582   1.381  0.0000  0.0000  0.0000
17059SL      H121399   7.908   6.582   1.479  0.0000  0.0000  0.0000
17060SL     Si121400   0.251   5.746   1.312  0.0000  0.0000  0.0000
17060SL      O121401   0.251   5.746   1.476  0.0000  0.0000  0.0000
17060SL      H121402   0.251   5.746   1.574  0.0000  0.0000  0.0000
17061SL     Si121403   1.356   3.310   1.268  0.0000  0.0000  0.0000
17061SL      O121404   1.356   3.310   1.432  0.0000  0.0000  0.0000
17061SL      H121405   1.356   3.310   1.530  0.0000  0.0000  0.0000
17062SL     Si121406   2.818   8.683   8.373  0.0000  0.0000  0.0000
17062SL      O121407   2.818   8.683   8.209  0.0000  0.0000  0.0000
17062SL      H121408   2.818   8.683   8.111  0.0000  0.0000  0.0000
17063SL     Si121409   6.253   3.056   1.241  0.0000  0.0000  0.0000
17063SL      O121410   6.253   3.056   1.405  0.0000  0.0000  0.0000
17063SL      H121411   6.253   3.056   1.503  0.0000  0.0000  0.0000
17064SL     Si121412   2.490   3.464   1.381  0.0000  0.0000  0.0000
17064SL      O121413   2.490   3.464   1.545  0.0000  0.0000  0.0000
17064SL      H121414   2.490   3.464   1.643  0.0000  0.0000  0.0000
17065SL     Si121415   3.937   6.952   8.345  0.0000  0.0000  0.0000
17065SL      O121416   3.937   6.952   8.181  0.0000  0.0000  0.0000
17065SL      H121417   3.937   6.952   8.083  0.0000  0.0000  0.0000
17066SL     Si121418   4.222   5.671   8.327  0.0000  0.0000  0.0000
17066SL      O121419   4.222   5.671   8.163  0.0000  0.0000  0.0000
17066SL      H121420   4.222   5.671   8.065  0.0000  0.0000  0.0000
17067SL     Si121421   5.012   8.527   8.238  0.0000  0.0000  0.0000
17067SL      O121422   5.012   8.527   8.074  0.0000  0.0000  0.0000
17067SL      H121423   5.012   8.527   7.976  0.0000  0.0000  0.0000
17068SL     Si121424   4.478   0.999   1.358  0.0000  0.0000  0.0000
17068SL      O121425   4.478   0.999   1.522  0.0000  0.0000  0.0000
17068SL      H121426   4.478   0.999   1.620  0.0000  0.0000  0.0000
17069SL     Si121427   0.071   6.753   1.419  0.0000  0.0000  0.0000
17069SL      O121428   0.071   6.753   1.583  0.0000  0.0000  0.0000
17069SL      H121429   0.071   6.753   1.681  0.0000  0.0000  0.0000
17070SL     Si121430   4.878   9.165   1.352  0.0000  0.0000  0.0000
17070SL      O121431   4.878   9.165   1.516  0.0000  0.0000  0.0000
17070SL      H121432   4.878   9.165   1.614  0.0000  0.0000  0.0000
17071SL     Si121433   6.921   9.254   1.339  0.0000  0.0000  0.0000
17071SL      O121434   6.921   9.254   1.503  0.0000  0.0000  0.0000
17071SL      H121435   6.921   9.254   1.601  0.0000  0.0000  0.0000
17072SL     Si121436   8.703   8.847   8.271  0.0000  0.0000  0.0000
17072SL      O121437   8.703   8.847   8.107  0.0000  0.0000  0.0000
17072SL      H121438   8.703   8.847   8.009  0.0000  0.0000  0.0000
17073SL     Si121439   7.915   5.703   1.225  0.0000  0.0000  0.0000
17073SL      O121440   7.915   5.703   1.389  0.0000  0.0000  0.0000
17073SL      H121441   7.915   5.703   1.487  0.0000  0.0000  0.0000
17074SL     Si121442   5.125   0.498   1.247  0.0000  0.0000  0.0000
17074SL      O121443   5.125   0.498   1.411  0.0000  0.0000  0.0000
17074SL      H121444   5.125   0.498   1.509  0.0000  0.0000  0.0000
17075SL     Si121445   7.584   8.993   8.445  0.0000  0.0000  0.0000
17075SL      O121446   7.584   8.993   8.281  0.0000  0.0000  0.0000
17075SL      H121447   7.584   8.993   8.183  0.0000  0.0000  0.0000
17076SL     Si121448   1.355   8.319   1.229  0.0000  0.0000  0.0000
17076SL      O121449   1.355   8.319   1.393  0.0000  0.0000  0.0000
17076SL      H121450   1.355   8.319   1.491  0.0000  0.0000  0.0000
17077SL     Si121451   6.557   3.746   8.191  0.0000  0.0000  0.0000
17077SL      O121452   6.557   3.746   8.027  0.0000  0.0000  0.0000
17077SL      H121453   6.557   3.746   7.929  0.0000  0.0000  0.0000
17078SL     Si121454   0.630   4.802   8.314  0.0000  0.0000  0.0000
17078SL      O121455   0.630   4.802   8.150  0.0000  0.0000  0.0000
17078SL      H121456   0.630   4.802   8.052  0.0000  0.0000  0.0000
17079SL     Si121457   6.938   0.231   1.225  0.0000  0.0000  0.0000
17079SL      O121458   6.938   0.231   1.389  0.0000  0.0000  0.0000
17079SL      H121459   6.938   0.231   1.487  0.0000  0.0000  0.0000
17080SL     Si121460   1.374   7.283   8.355  0.0000  0.0000  0.0000
17080SL      O121461   1.374   7.283   8.191  0.0000  0.0000  0.0000
17080SL      H121462   1.374   7.283   8.093  0.0000  0.0000  0.0000
17081SL     Si121463   7.470   8.721   1.156  0.0000  0.0000  0.0000
17081SL      O121464   7.470   8.721   1.320  0.0000  0.0000  0.0000
17081SL      H121465   7.470   8.721   1.418  0.0000  0.0000  0.0000
17082SL     Si121466   6.057   0.057   1.124  0.0000  0.0000  0.0000
17082SL      O121467   6.057   0.057   1.288  0.0000  0.0000  0.0000
17082SL      H121468   6.057   0.057   1.386  0.0000  0.0000  0.0000
17083SL     Si121469   4.537   1.605   8.324  0.0000  0.0000  0.0000
17083SL      O121470   4.537   1.605   8.160  0.0000  0.0000  0.0000
17083SL      H121471   4.537   1.605   8.062  0.0000  0.0000  0.0000
17084SL     Si121472   2.729   8.499   1.374  0.0000  0.0000  0.0000
17084SL      O121473   2.729   8.499   1.538  0.0000  0.0000  0.0000
17084SL      H121474   2.729   8.499   1.636  0.0000  0.0000  0.0000
17085SL     Si121475   6.410   0.927   8.269  0.0000  0.0000  0.0000
17085SL      O121476   6.410   0.927   8.105  0.0000  0.0000  0.0000
17085SL      H121477   6.410   0.927   8.007  0.0000  0.0000  0.0000
17086SL     Si121478   6.653   7.587   8.247  0.0000  0.0000  0.0000
17086SL      O121479   6.653   7.587   8.083  0.0000  0.0000  0.0000
17086SL      H121480   6.653   7.587   7.985  0.0000  0.0000  0.0000
17087SL     Si121481   2.564   0.440   8.343  0.0000  0.0000  0.0000
17087SL      O121482   2.564   0.440   8.179  0.0000  0.0000  0.0000
17087SL      H121483   2.564   0.440   8.081  0.0000  0.0000  0.0000
17088SL     Si121484   8.193   1.636   8.207  0.0000  0.0000  0.0000
17088SL      O121485   8.193   1.636   8.043  0.0000  0.0000  0.0000
17088SL      H121486   8.193   1.636   7.945  0.0000  0.0000  0.0000
17089SL     Si121487   1.308   5.115   8.437  0.0000  0.0000  0.0000
17089SL      O121488   1.308   5.115   8.273  0.0000  0.0000  0.0000
17089SL      H121489   1.308   5.115   8.175  0.0000  0.0000  0.0000
17090SL     Si121490   6.776   0.385   8.263  0.0000  0.0000  0.0000
17090SL      O121491   6.776   0.385   8.099  0.0000  0.0000  0.0000
17090SL      H121492   6.776   0.385   8.001  0.0000  0.0000  0.0000
17091SL     Si121493   7.439   4.368   1.185  0.0000  0.0000  0.0000
17091SL      O121494   7.439   4.368   1.349  0.0000  0.0000  0.0000
17091SL      H121495   7.439   4.368   1.447  0.0000  0.0000  0.0000
17092SL     Si121496   5.501   3.014   1.222  0.0000  0.0000  0.0000
17092SL      O121497   5.501   3.014   1.386  0.0000  0.0000  0.0000
17092SL      H121498   5.501   3.014   1.484  0.0000  0.0000  0.0000
17093SL     Si121499   5.299   1.714   8.195  0.0000  0.0000  0.0000
17093SL      O121500   5.299   1.714   8.031  0.0000  0.0000  0.0000
17093SL      H121501   5.299   1.714   7.933  0.0000  0.0000  0.0000
17094SL     Si121502   9.117   7.262   8.171  0.0000  0.0000  0.0000
17094SL      O121503   9.117   7.262   8.007  0.0000  0.0000  0.0000
17094SL      H121504   9.117   7.262   7.909  0.0000  0.0000  0.0000
17095SL     Si121505   2.168   0.171   8.251  0.0000  0.0000  0.0000
17095SL      O121506   2.168   0.171   8.087  0.0000  0.0000  0.0000
17095SL      H121507   2.168   0.171   7.989  0.0000  0.0000  0.0000
17096SL     Si121508   1.488   8.514   1.427  0.0000  0.0000  0.0000
17096SL      O121509   1.488   8.514   1.591  0.0000  0.0000  0.0000
17096SL      H121510   1.488   8.514   1.689  0.0000  0.0000  0.0000
17097SL     Si121511   1.378   4.412   1.400  0.0000  0.0000  0.0000
17097SL      O121512   1.378   4.412   1.564  0.0000  0.0000  0.0000
17097SL      H121513   1.378   4.412   1.662  0.0000  0.0000  0.0000
17098SL     Si121514   0.808   7.263   8.331  0.0000  0.0000  0.0000
17098SL      O121515   0.808   7.263   8.167  0.0000  0.0000  0.0000
17098SL      H121516   0.808   7.263   8.069  0.0000  0.0000  0.0000
17099SL     Si121517   5.170   3.294   1.425  0.0000  0.0000  0.0000
17099SL      O121518   5.170   3.294   1.589  0.0000  0.0000  0.0000
17099SL      H121519   5.170   3.294   1.687  0.0000  0.0000  0.0000
17100SL     Si121520   3.256   7.023   1.322  0.0000  0.0000  0.0000
17100SL      O121521   3.256   7.023   1.486  0.0000  0.0000  0.0000
17100SL      H121522   3.256   7.023   1.584  0.0000  0.0000  0.0000
17101SL     Si121523   4.945   0.271   8.185  0.0000  0.0000  0.0000
17101SL      O121524   4.945   0.271   8.021  0.0000  0.0000  0.0000
17101SL      H121525   4.945   0.271   7.923  0.0000  0.0000  0.0000
17102SL     Si121526   0.316   7.723   1.161  0.0000  0.0000  0.0000
17102SL      O121527   0.316   7.723   1.325  0.0000  0.0000  0.0000
17102SL      H121528   0.316   7.723   1.423  0.0000  0.0000  0.0000
17103SL     Si121529   7.647   6.414   1.297  0.0000  0.0000  0.0000
17103SL      O121530   7.647   6.414   1.461  0.0000  0.0000  0.0000
17103SL      H121531   7.647   6.414   1.559  0.0000  0.0000  0.0000
17104SL     Si121532   3.178   2.805   0.945  0.0000  0.0000  0.0000
17104SL      O121533   3.178   2.805   1.109  0.0000  0.0000  0.0000
17104SL      H121534   3.178   2.805   1.207  0.0000  0.0000  0.0000
17105SL     Si121535   8.713   0.093   1.275  0.0000  0.0000  0.0000
17105SL      O121536   8.713   0.093   1.439  0.0000  0.0000  0.0000
17105SL      H121537   8.713   0.093   1.537  0.0000  0.0000  0.0000
17106SL     Si121538   1.229   9.010   8.375  0.0000  0.0000  0.0000
17106SL      O121539   1.229   9.010   8.211  0.0000  0.0000  0.0000
17106SL      H121540   1.229   9.010   8.113  0.0000  0.0000  0.0000
17107SL     Si121541   3.943   6.332   1.264  0.0000  0.0000  0.0000
17107SL      O121542   3.943   6.332   1.428  0.0000  0.0000  0.0000
17107SL      H121543   3.943   6.332   1.526  0.0000  0.0000  0.0000
17108SL     Si121544   3.576   6.360   8.233  0.0000  0.0000  0.0000
17108SL      O121545   3.576   6.360   8.069  0.0000  0.0000  0.0000
17108SL      H121546   3.576   6.360   7.971  0.0000  0.0000  0.0000
17109SL     Si121547   5.761   2.888   1.365  0.0000  0.0000  0.0000
17109SL      O121548   5.761   2.888   1.529  0.0000  0.0000  0.0000
17109SL      H121549   5.761   2.888   1.627  0.0000  0.0000  0.0000
17110SL     Si121550   5.874   5.510   8.355  0.0000  0.0000  0.0000
17110SL      O121551   5.874   5.510   8.191  0.0000  0.0000  0.0000
17110SL      H121552   5.874   5.510   8.093  0.0000  0.0000  0.0000
17111SL     Si121553   9.418   3.266   8.261  0.0000  0.0000  0.0000
17111SL      O121554   9.418   3.266   8.097  0.0000  0.0000  0.0000
17111SL      H121555   9.418   3.266   7.999  0.0000  0.0000  0.0000
17112SL     Si121556   3.577   2.047   1.323  0.0000  0.0000  0.0000
17112SL      O121557   3.577   2.047   1.487  0.0000  0.0000  0.0000
17112SL      H121558   3.577   2.047   1.585  0.0000  0.0000  0.0000
17113SL     Si121559   0.667   1.255   8.271  0.0000  0.0000  0.0000
17113SL      O121560   0.667   1.255   8.107  0.0000  0.0000  0.0000
17113SL      H121561   0.667   1.255   8.009  0.0000  0.0000  0.0000
17114SL     Si121562   7.894   2.695   8.303  0.0000  0.0000  0.0000
17114SL      O121563   7.894   2.695   8.139  0.0000  0.0000  0.0000
17114SL      H121564   7.894   2.695   8.041  0.0000  0.0000  0.0000
17115SL     Si121565   0.386   7.901   8.332  0.0000  0.0000  0.0000
17115SL      O121566   0.386   7.901   8.168  0.0000  0.0000  0.0000
17115SL      H121567   0.386   7.901   8.070  0.0000  0.0000  0.0000
17116SL     Si121568   9.589   9.227   1.417  0.0000  0.0000  0.0000
17116SL      O121569   9.589   9.227   1.581  0.0000  0.0000  0.0000
17116SL      H121570   9.589   9.227   1.679  0.0000  0.0000  0.0000
17117SL     Si121571   0.842   4.267   8.185  0.0000  0.0000  0.0000
17117SL      O121572   0.842   4.267   8.021  0.0000  0.0000  0.0000
17117SL      H121573   0.842   4.267   7.923  0.0000  0.0000  0.0000
17118SL     Si121574   4.989   2.336   8.250  0.0000  0.0000  0.0000
17118SL      O121575   4.989   2.336   8.086  0.0000  0.0000  0.0000
17118SL      H121576   4.989   2.336   7.988  0.0000  0.0000  0.0000
17119SL     Si121577   6.245   1.403   8.322  0.0000  0.0000  0.0000
17119SL      O121578   6.245   1.403   8.158  0.0000  0.0000  0.0000
17119SL      H121579   6.245   1.403   8.060  0.0000  0.0000  0.0000
17120SL     Si121580   9.103   7.972   8.389  0.0000  0.0000  0.0000
17120SL      O121581   9.103   7.972   8.225  0.0000  0.0000  0.0000
17120SL      H121582   9.103   7.972   8.127  0.0000  0.0000  0.0000
17121SL     Si121583   6.473   4.759   1.228  0.0000  0.0000  0.0000
17121SL      O121584   6.473   4.759   1.392  0.0000  0.0000  0.0000
17121SL      H121585   6.473   4.759   1.490  0.0000  0.0000  0.0000
17122SL     Si121586   3.073   4.205   1.221  0.0000  0.0000  0.0000
17122SL      O121587   3.073   4.205   1.385  0.0000  0.0000  0.0000
17122SL      H121588   3.073   4.205   1.483  0.0000  0.0000  0.0000
17123SL     Si121589   3.479   6.797   1.333  0.0000  0.0000  0.0000
17123SL      O121590   3.479   6.797   1.497  0.0000  0.0000  0.0000
17123SL      H121591   3.479   6.797   1.595  0.0000  0.0000  0.0000
17124SL     Si121592   8.664   5.217   8.206  0.0000  0.0000  0.0000
17124SL      O121593   8.664   5.217   8.042  0.0000  0.0000  0.0000
17124SL      H121594   8.664   5.217   7.944  0.0000  0.0000  0.0000
17125SL     Si121595   5.192   5.377   1.357  0.0000  0.0000  0.0000
17125SL      O121596   5.192   5.377   1.521  0.0000  0.0000  0.0000
17125SL      H121597   5.192   5.377   1.619  0.0000  0.0000  0.0000
17126SL     Si121598   4.398   8.508   1.285  0.0000  0.0000  0.0000
17126SL      O121599   4.398   8.508   1.449  0.0000  0.0000  0.0000
17126SL      H121600   4.398   8.508   1.547  0.0000  0.0000  0.0000
17127SL     Si121601   5.100   9.576   1.286  0.0000  0.0000  0.0000
17127SL      O121602   5.100   9.576   1.450  0.0000  0.0000  0.0000
17127SL      H121603   5.100   9.576   1.548  0.0000  0.0000  0.0000
17128SL     Si121604   7.806   7.784   1.218  0.0000  0.0000  0.0000
17128SL      O121605   7.806   7.784   1.382  0.0000  0.0000  0.0000
17128SL      H121606   7.806   7.784   1.480  0.0000  0.0000  0.0000
17129SL     Si121607   4.134   0.844   8.236  0.0000  0.0000  0.0000
17129SL      O121608   4.134   0.844   8.072  0.0000  0.0000  0.0000
17129SL      H121609   4.134   0.844   7.974  0.0000  0.0000  0.0000
17130SL     Si121610   7.308   4.789   1.237  0.0000  0.0000  0.0000
17130SL      O121611   7.308   4.789   1.401  0.0000  0.0000  0.0000
17130SL      H121612   7.308   4.789   1.499  0.0000  0.0000  0.0000
17131SL     Si121613   3.321   1.981   1.409  0.0000  0.0000  0.0000
17131SL      O121614   3.321   1.981   1.573  0.0000  0.0000  0.0000
17131SL      H121615   3.321   1.981   1.671  0.0000  0.0000  0.0000
17132SL     Si121616   2.694   7.471   8.220  0.0000  0.0000  0.0000
17132SL      O121617   2.694   7.471   8.056  0.0000  0.0000  0.0000
17132SL      H121618   2.694   7.471   7.958  0.0000  0.0000  0.0000
17133SL     Si121619   5.597   7.480   1.358  0.0000  0.0000  0.0000
17133SL      O121620   5.597   7.480   1.522  0.0000  0.0000  0.0000
17133SL      H121621   5.597   7.480   1.620  0.0000  0.0000  0.0000
17134SL     Si121622   0.567   6.660   1.261  0.0000  0.0000  0.0000
17134SL      O121623   0.567   6.660   1.425  0.0000  0.0000  0.0000
17134SL      H121624   0.567   6.660   1.523  0.0000  0.0000  0.0000
17135SL     Si121625   9.580   0.111   8.380  0.0000  0.0000  0.0000
17135SL      O121626   9.580   0.111   8.216  0.0000  0.0000  0.0000
17135SL      H121627   9.580   0.111   8.118  0.0000  0.0000  0.0000
17136SL     Si121628   1.848   6.745   8.193  0.0000  0.0000  0.0000
17136SL      O121629   1.848   6.745   8.029  0.0000  0.0000  0.0000
17136SL      H121630   1.848   6.745   7.931  0.0000  0.0000  0.0000
17137SL     Si121631   7.615   5.781   1.222  0.0000  0.0000  0.0000
17137SL      O121632   7.615   5.781   1.386  0.0000  0.0000  0.0000
17137SL      H121633   7.615   5.781   1.484  0.0000  0.0000  0.0000
17138SL     Si121634   3.975   9.105   1.410  0.0000  0.0000  0.0000
17138SL      O121635   3.975   9.105   1.574  0.0000  0.0000  0.0000
17138SL      H121636   3.975   9.105   1.672  0.0000  0.0000  0.0000
17139SL     Si121637   1.598   9.494   1.330  0.0000  0.0000  0.0000
17139SL      O121638   1.598   9.494   1.494  0.0000  0.0000  0.0000
17139SL      H121639   1.598   9.494   1.592  0.0000  0.0000  0.0000
17140SL     Si121640   7.093   1.923   8.285  0.0000  0.0000  0.0000
17140SL      O121641   7.093   1.923   8.121  0.0000  0.0000  0.0000
17140SL      H121642   7.093   1.923   8.023  0.0000  0.0000  0.0000
17141SL     Si121643   3.067   4.715   1.361  0.0000  0.0000  0.0000
17141SL      O121644   3.067   4.715   1.525  0.0000  0.0000  0.0000
17141SL      H121645   3.067   4.715   1.623  0.0000  0.0000  0.0000
17142SL     Si121646   5.239   1.445   8.344  0.0000  0.0000  0.0000
17142SL      O121647   5.239   1.445   8.180  0.0000  0.0000  0.0000
17142SL      H121648   5.239   1.445   8.082  0.0000  0.0000  0.0000
17143SL     Si121649   2.180   7.498   1.379  0.0000  0.0000  0.0000
17143SL      O121650   2.180   7.498   1.543  0.0000  0.0000  0.0000
17143SL      H121651   2.180   7.498   1.641  0.0000  0.0000  0.0000
17144SL     Si121652   0.321   7.455   1.278  0.0000  0.0000  0.0000
17144SL      O121653   0.321   7.455   1.442  0.0000  0.0000  0.0000
17144SL      H121654   0.321   7.455   1.540  0.0000  0.0000  0.0000
17145SL     Si121655   7.813   0.454   1.441  0.0000  0.0000  0.0000
17145SL      O121656   7.813   0.454   1.605  0.0000  0.0000  0.0000
17145SL      H121657   7.813   0.454   1.703  0.0000  0.0000  0.0000
17146SL     Si121658   3.755   9.460   8.320  0.0000  0.0000  0.0000
17146SL      O121659   3.755   9.460   8.156  0.0000  0.0000  0.0000
17146SL      H121660   3.755   9.460   8.058  0.0000  0.0000  0.0000
17147SL     Si121661   4.584   5.744   1.142  0.0000  0.0000  0.0000
17147SL      O121662   4.584   5.744   1.306  0.0000  0.0000  0.0000
17147SL      H121663   4.584   5.744   1.404  0.0000  0.0000  0.0000
17148SL     Si121664   1.424   6.037   8.329  0.0000  0.0000  0.0000
17148SL      O121665   1.424   6.037   8.165  0.0000  0.0000  0.0000
17148SL      H121666   1.424   6.037   8.067  0.0000  0.0000  0.0000
17149SL     Si121667   6.034   1.592   1.328  0.0000  0.0000  0.0000
17149SL      O121668   6.034   1.592   1.492  0.0000  0.0000  0.0000
17149SL      H121669   6.034   1.592   1.590  0.0000  0.0000  0.0000
17150SL     Si121670   7.203   9.182   8.344  0.0000  0.0000  0.0000
17150SL      O121671   7.203   9.182   8.180  0.0000  0.0000  0.0000
17150SL      H121672   7.203   9.182   8.082  0.0000  0.0000  0.0000
17151SL     Si121673   1.833   0.516   1.351  0.0000  0.0000  0.0000
17151SL      O121674   1.833   0.516   1.515  0.0000  0.0000  0.0000
17151SL      H121675   1.833   0.516   1.613  0.0000  0.0000  0.0000
17152SL     Si121676   4.678   5.281   1.089  0.0000  0.0000  0.0000
17152SL      O121677   4.678   5.281   1.253  0.0000  0.0000  0.0000
17152SL      H121678   4.678   5.281   1.351  0.0000  0.0000  0.0000
17153SL     Si121679   3.860   9.357   1.300  0.0000  0.0000  0.0000
17153SL      O121680   3.860   9.357   1.464  0.0000  0.0000  0.0000
17153SL      H121681   3.860   9.357   1.562  0.0000  0.0000  0.0000
17154SL     Si121682   3.890   4.785   8.413  0.0000  0.0000  0.0000
17154SL      O121683   3.890   4.785   8.249  0.0000  0.0000  0.0000
17154SL      H121684   3.890   4.785   8.151  0.0000  0.0000  0.0000
17155SL     Si121685   1.049   1.281   8.215  0.0000  0.0000  0.0000
17155SL      O121686   1.049   1.281   8.051  0.0000  0.0000  0.0000
17155SL      H121687   1.049   1.281   7.953  0.0000  0.0000  0.0000
17156SL     Si121688   7.575   3.219   1.287  0.0000  0.0000  0.0000
17156SL      O121689   7.575   3.219   1.451  0.0000  0.0000  0.0000
17156SL      H121690   7.575   3.219   1.549  0.0000  0.0000  0.0000
17157SL     Si121691   9.023   1.254   8.232  0.0000  0.0000  0.0000
17157SL      O121692   9.023   1.254   8.068  0.0000  0.0000  0.0000
17157SL      H121693   9.023   1.254   7.970  0.0000  0.0000  0.0000
17158SL     Si121694   3.805   1.173   8.218  0.0000  0.0000  0.0000
17158SL      O121695   3.805   1.173   8.054  0.0000  0.0000  0.0000
17158SL      H121696   3.805   1.173   7.956  0.0000  0.0000  0.0000
17159SL     Si121697   1.037   7.671   8.253  0.0000  0.0000  0.0000
17159SL      O121698   1.037   7.671   8.089  0.0000  0.0000  0.0000
17159SL      H121699   1.037   7.671   7.991  0.0000  0.0000  0.0000
17160SL     Si121700   0.352   4.919   8.337  0.0000  0.0000  0.0000
17160SL      O121701   0.352   4.919   8.173  0.0000  0.0000  0.0000
17160SL      H121702   0.352   4.919   8.075  0.0000  0.0000  0.0000
17161SL     Si121703   1.642   5.789   1.335  0.0000  0.0000  0.0000
17161SL      O121704   1.642   5.789   1.499  0.0000  0.0000  0.0000
17161SL      H121705   1.642   5.789   1.597  0.0000  0.0000  0.0000
17162SL     Si121706   5.921   7.417   8.271  0.0000  0.0000  0.0000
17162SL      O121707   5.921   7.417   8.107  0.0000  0.0000  0.0000
17162SL      H121708   5.921   7.417   8.009  0.0000  0.0000  0.0000
17163SL     Si121709   4.493   2.280   1.235  0.0000  0.0000  0.0000
17163SL      O121710   4.493   2.280   1.399  0.0000  0.0000  0.0000
17163SL      H121711   4.493   2.280   1.497  0.0000  0.0000  0.0000
17164SL     Si121712   6.196   7.184   1.194  0.0000  0.0000  0.0000
17164SL      O121713   6.196   7.184   1.358  0.0000  0.0000  0.0000
17164SL      H121714   6.196   7.184   1.456  0.0000  0.0000  0.0000
17165SL     Si121715   2.800   2.340   8.392  0.0000  0.0000  0.0000
17165SL      O121716   2.800   2.340   8.228  0.0000  0.0000  0.0000
17165SL      H121717   2.800   2.340   8.130  0.0000  0.0000  0.0000
17166SL     Si121718   4.888   9.175   8.161  0.0000  0.0000  0.0000
17166SL      O121719   4.888   9.175   7.997  0.0000  0.0000  0.0000
17166SL      H121720   4.888   9.175   7.899  0.0000  0.0000  0.0000
17167SL     Si121721   8.101   9.019   8.525  0.0000  0.0000  0.0000
17167SL      O121722   8.101   9.019   8.361  0.0000  0.0000  0.0000
17167SL      H121723   8.101   9.019   8.263  0.0000  0.0000  0.0000
17168SL     Si121724   6.206   3.332   8.474  0.0000  0.0000  0.0000
17168SL      O121725   6.206   3.332   8.310  0.0000  0.0000  0.0000
17168SL      H121726   6.206   3.332   8.212  0.0000  0.0000  0.0000
17169SL     Si121727   7.071   2.660   8.169  0.0000  0.0000  0.0000
17169SL      O121728   7.071   2.660   8.005  0.0000  0.0000  0.0000
17169SL      H121729   7.071   2.660   7.907  0.0000  0.0000  0.0000
17170SL     Si121730   5.755   8.008   8.388  0.0000  0.0000  0.0000
17170SL      O121731   5.755   8.008   8.224  0.0000  0.0000  0.0000
17170SL      H121732   5.755   8.008   8.126  0.0000  0.0000  0.0000
17171SL     Si121733   6.451   3.895   1.344  0.0000  0.0000  0.0000
17171SL      O121734   6.451   3.895   1.508  0.0000  0.0000  0.0000
17171SL      H121735   6.451   3.895   1.606  0.0000  0.0000  0.0000
17172SL     Si121736   0.894   4.159   1.403  0.0000  0.0000  0.0000
17172SL      O121737   0.894   4.159   1.567  0.0000  0.0000  0.0000
17172SL      H121738   0.894   4.159   1.665  0.0000  0.0000  0.0000
17173SL     Si121739   7.931   3.870   1.436  0.0000  0.0000  0.0000
17173SL      O121740   7.931   3.870   1.600  0.0000  0.0000  0.0000
17173SL      H121741   7.931   3.870   1.698  0.0000  0.0000  0.0000
17174SL     Si121742   8.069   3.216   8.288  0.0000  0.0000  0.0000
17174SL      O121743   8.069   3.216   8.124  0.0000  0.0000  0.0000
17174SL      H121744   8.069   3.216   8.026  0.0000  0.0000  0.0000
17175SL     Si121745   8.133   0.017   8.276  0.0000  0.0000  0.0000
17175SL      O121746   8.133   0.017   8.112  0.0000  0.0000  0.0000
17175SL      H121747   8.133   0.017   8.014  0.0000  0.0000  0.0000
17176SL     Si121748   1.698   0.222   8.279  0.0000  0.0000  0.0000
17176SL      O121749   1.698   0.222   8.115  0.0000  0.0000  0.0000
17176SL      H121750   1.698   0.222   8.017  0.0000  0.0000  0.0000
17177SL     Si121751   5.742   8.457   8.342  0.0000  0.0000  0.0000
17177SL      O121752   5.742   8.457   8.178  0.0000  0.0000  0.0000
17177SL      H121753   5.742   8.457   8.080  0.0000  0.0000  0.0000
17178SL     Si121754   3.987   1.683   8.523  0.0000  0.0000  0.0000
17178SL      O121755   3.987   1.683   8.359  0.0000  0.0000  0.0000
17178SL      H121756   3.987   1.683   8.261  0.0000  0.0000  0.0000
17179SL     Si121757   8.061   7.353   1.172  0.0000  0.0000  0.0000
17179SL      O121758   8.061   7.353   1.336  0.0000  0.0000  0.0000
17179SL      H121759   8.061   7.353   1.434  0.0000  0.0000  0.0000
17180SL     Si121760   1.397   0.167   8.295  0.0000  0.0000  0.0000
17180SL      O121761   1.397   0.167   8.131  0.0000  0.0000  0.0000
17180SL      H121762   1.397   0.167   8.033  0.0000  0.0000  0.0000
17181SL     Si121763   9.060   8.277   8.332  0.0000  0.0000  0.0000
17181SL      O121764   9.060   8.277   8.168  0.0000  0.0000  0.0000
17181SL      H121765   9.060   8.277   8.070  0.0000  0.0000  0.0000
17182SL     Si121766   2.256   8.656   1.213  0.0000  0.0000  0.0000
17182SL      O121767   2.256   8.656   1.377  0.0000  0.0000  0.0000
17182SL      H121768   2.256   8.656   1.475  0.0000  0.0000  0.0000
17183SL     Si121769   7.478   4.962   8.378  0.0000  0.0000  0.0000
17183SL      O121770   7.478   4.962   8.214  0.0000  0.0000  0.0000
17183SL      H121771   7.478   4.962   8.116  0.0000  0.0000  0.0000
17184SL     Si121772   9.015   5.539   1.152  0.0000  0.0000  0.0000
17184SL      O121773   9.015   5.539   1.316  0.0000  0.0000  0.0000
17184SL      H121774   9.015   5.539   1.414  0.0000  0.0000  0.0000
17185SL     Si121775   6.438   3.459   1.136  0.0000  0.0000  0.0000
17185SL      O121776   6.438   3.459   1.300  0.0000  0.0000  0.0000
17185SL      H121777   6.438   3.459   1.398  0.0000  0.0000  0.0000
17186SL     Si121778   5.182   4.126   1.286  0.0000  0.0000  0.0000
17186SL      O121779   5.182   4.126   1.450  0.0000  0.0000  0.0000
17186SL      H121780   5.182   4.126   1.548  0.0000  0.0000  0.0000
17187SL     Si121781   9.498   1.821   8.229  0.0000  0.0000  0.0000
17187SL      O121782   9.498   1.821   8.065  0.0000  0.0000  0.0000
17187SL      H121783   9.498   1.821   7.967  0.0000  0.0000  0.0000
17188SL     Si121784   2.723   5.509   8.273  0.0000  0.0000  0.0000
17188SL      O121785   2.723   5.509   8.109  0.0000  0.0000  0.0000
17188SL      H121786   2.723   5.509   8.011  0.0000  0.0000  0.0000
17189SL     Si121787   0.924   4.061   8.389  0.0000  0.0000  0.0000
17189SL      O121788   0.924   4.061   8.225  0.0000  0.0000  0.0000
17189SL      H121789   0.924   4.061   8.127  0.0000  0.0000  0.0000
17190SL     Si121790   2.335   1.208   8.284  0.0000  0.0000  0.0000
17190SL      O121791   2.335   1.208   8.120  0.0000  0.0000  0.0000
17190SL      H121792   2.335   1.208   8.022  0.0000  0.0000  0.0000
17191SL     Si121793   2.071   8.854   8.252  0.0000  0.0000  0.0000
17191SL      O121794   2.071   8.854   8.088  0.0000  0.0000  0.0000
17191SL      H121795   2.071   8.854   7.990  0.0000  0.0000  0.0000
17192SL     Si121796   4.886   3.674   8.286  0.0000  0.0000  0.0000
17192SL      O121797   4.886   3.674   8.122  0.0000  0.0000  0.0000
17192SL      H121798   4.886   3.674   8.024  0.0000  0.0000  0.0000
17193SL     Si121799   0.846   5.660   8.460  0.0000  0.0000  0.0000
17193SL      O121800   0.846   5.660   8.296  0.0000  0.0000  0.0000
17193SL      H121801   0.846   5.660   8.198  0.0000  0.0000  0.0000
17194SL     Si121802   7.327   7.678   1.397  0.0000  0.0000  0.0000
17194SL      O121803   7.327   7.678   1.561  0.0000  0.0000  0.0000
17194SL      H121804   7.327   7.678   1.659  0.0000  0.0000  0.0000
17195SL     Si121805   8.222   8.624   1.280  0.0000  0.0000  0.0000
17195SL      O121806   8.222   8.624   1.444  0.0000  0.0000  0.0000
17195SL      H121807   8.222   8.624   1.542  0.0000  0.0000  0.0000
17196SL     Si121808   8.161   9.566   1.398  0.0000  0.0000  0.0000
17196SL      O121809   8.161   9.566   1.562  0.0000  0.0000  0.0000
17196SL      H121810   8.161   9.566   1.660  0.0000  0.0000  0.0000
17197SL     Si121811   9.293   9.230   1.342  0.0000  0.0000  0.0000
17197SL      O121812   9.293   9.230   1.506  0.0000  0.0000  0.0000
17197SL      H121813   9.293   9.230   1.604  0.0000  0.0000  0.0000
17198SL     Si121814   4.284   0.362   8.347  0.0000  0.0000  0.0000
17198SL      O121815   4.284   0.362   8.183  0.0000  0.0000  0.0000
17198SL      H121816   4.284   0.362   8.085  0.0000  0.0000  0.0000
17199SL     Si121817   4.955   6.430   1.161  0.0000  0.0000  0.0000
17199SL      O121818   4.955   6.430   1.325  0.0000  0.0000  0.0000
17199SL      H121819   4.955   6.430   1.423  0.0000  0.0000  0.0000
17200SL     Si121820   1.099   7.368   8.245  0.0000  0.0000  0.0000
17200SL      O121821   1.099   7.368   8.081  0.0000  0.0000  0.0000
17200SL      H121822   1.099   7.368   7.983  0.0000  0.0000  0.0000
17201SL     Si121823   5.336   7.733   8.366  0.0000  0.0000  0.0000
17201SL      O121824   5.336   7.733   8.202  0.0000  0.0000  0.0000
17201SL      H121825   5.336   7.733   8.104  0.0000  0.0000  0.0000
17202SL     Si121826   2.543   9.564   8.257  0.0000  0.0000  0.0000
17202SL      O121827   2.543   9.564   8.093  0.0000  0.0000  0.0000
17202SL      H121828   2.543   9.564   7.995  0.0000  0.0000  0.0000
17203SL     Si121829   1.318   7.529   1.203  0.0000  0.0000  0.0000
17203SL      O121830   1.318   7.529   1.367  0.0000  0.0000  0.0000
17203SL      H121831   1.318   7.529   1.465  0.0000  0.0000  0.0000
17204SL     Si121832   9.256   6.561   8.308  0.0000  0.0000  0.0000
17204SL      O121833   9.256   6.561   8.144  0.0000  0.0000  0.0000
17204SL      H121834   9.256   6.561   8.046  0.0000  0.0000  0.0000
17205SL     Si121835   4.684   0.526   1.218  0.0000  0.0000  0.0000
17205SL      O121836   4.684   0.526   1.382  0.0000  0.0000  0.0000
17205SL      H121837   4.684   0.526   1.480  0.0000  0.0000  0.0000
17206SL     Si121838   0.777   0.934   1.303  0.0000  0.0000  0.0000
17206SL      O121839   0.777   0.934   1.467  0.0000  0.0000  0.0000
17206SL      H121840   0.777   0.934   1.565  0.0000  0.0000  0.0000
17207SL     Si121841   5.338   0.945   1.335  0.0000  0.0000  0.0000
17207SL      O121842   5.338   0.945   1.499  0.0000  0.0000  0.0000
17207SL      H121843   5.338   0.945   1.597  0.0000  0.0000  0.0000
17208SL     Si121844   0.349   2.744   8.317  0.0000  0.0000  0.0000
17208SL      O121845   0.349   2.744   8.153  0.0000  0.0000  0.0000
17208SL      H121846   0.349   2.744   8.055  0.0000  0.0000  0.0000
17209SL     Si121847   3.791   2.170   8.588  0.0000  0.0000  0.0000
17209SL      O121848   3.791   2.170   8.424  0.0000  0.0000  0.0000
17209SL      H121849   3.791   2.170   8.326  0.0000  0.0000  0.0000
17210SL     Si121850   1.880   2.152   8.226  0.0000  0.0000  0.0000
17210SL      O121851   1.880   2.152   8.062  0.0000  0.0000  0.0000
17210SL      H121852   1.880   2.152   7.964  0.0000  0.0000  0.0000
17211SL     Si121853   9.298   7.763   1.198  0.0000  0.0000  0.0000
17211SL      O121854   9.298   7.763   1.362  0.0000  0.0000  0.0000
17211SL      H121855   9.298   7.763   1.460  0.0000  0.0000  0.0000
17212SL     Si121856   3.189   0.257   8.233  0.0000  0.0000  0.0000
17212SL      O121857   3.189   0.257   8.069  0.0000  0.0000  0.0000
17212SL      H121858   3.189   0.257   7.971  0.0000  0.0000  0.0000
17213SL     Si121859   8.611   5.355   1.307  0.0000  0.0000  0.0000
17213SL      O121860   8.611   5.355   1.471  0.0000  0.0000  0.0000
17213SL      H121861   8.611   5.355   1.569  0.0000  0.0000  0.0000
17214SL     Si121862   0.240   6.230   1.317  0.0000  0.0000  0.0000
17214SL      O121863   0.240   6.230   1.481  0.0000  0.0000  0.0000
17214SL      H121864   0.240   6.230   1.579  0.0000  0.0000  0.0000
17215SL     Si121865   4.296   9.485   8.420  0.0000  0.0000  0.0000
17215SL      O121866   4.296   9.485   8.256  0.0000  0.0000  0.0000
17215SL      H121867   4.296   9.485   8.158  0.0000  0.0000  0.0000
17216SL     Si121868   8.225   7.040   8.235  0.0000  0.0000  0.0000
17216SL      O121869   8.225   7.040   8.071  0.0000  0.0000  0.0000
17216SL      H121870   8.225   7.040   7.973  0.0000  0.0000  0.0000
17217SL     Si121871   5.218   8.974   8.335  0.0000  0.0000  0.0000
17217SL      O121872   5.218   8.974   8.171  0.0000  0.0000  0.0000
17217SL      H121873   5.218   8.974   8.073  0.0000  0.0000  0.0000
17218SL     Si121874   3.810   5.368   1.344  0.0000  0.0000  0.0000
17218SL      O121875   3.810   5.368   1.508  0.0000  0.0000  0.0000
17218SL      H121876   3.810   5.368   1.606  0.0000  0.0000  0.0000
17219SL     Si121877   5.881   3.929   1.157  0.0000  0.0000  0.0000
17219SL      O121878   5.881   3.929   1.321  0.0000  0.0000  0.0000
17219SL      H121879   5.881   3.929   1.419  0.0000  0.0000  0.0000
17220SL     Si121880   3.180   1.520   1.291  0.0000  0.0000  0.0000
17220SL      O121881   3.180   1.520   1.455  0.0000  0.0000  0.0000
17220SL      H121882   3.180   1.520   1.553  0.0000  0.0000  0.0000
17221SL     Si121883   7.156   3.846   8.273  0.0000  0.0000  0.0000
17221SL      O121884   7.156   3.846   8.109  0.0000  0.0000  0.0000
17221SL      H121885   7.156   3.846   8.011  0.0000  0.0000  0.0000
17222SL     Si121886   3.843   0.392   8.353  0.0000  0.0000  0.0000
17222SL      O121887   3.843   0.392   8.189  0.0000  0.0000  0.0000
17222SL      H121888   3.843   0.392   8.091  0.0000  0.0000  0.0000
17223SL     Si121889   1.059   6.907   1.284  0.0000  0.0000  0.0000
17223SL      O121890   1.059   6.907   1.448  0.0000  0.0000  0.0000
17223SL      H121891   1.059   6.907   1.546  0.0000  0.0000  0.0000
17224SL     Si121892   3.922   5.090   8.345  0.0000  0.0000  0.0000
17224SL      O121893   3.922   5.090   8.181  0.0000  0.0000  0.0000
17224SL      H121894   3.922   5.090   8.083  0.0000  0.0000  0.0000
17225SL     Si121895   2.074   9.036   1.349  0.0000  0.0000  0.0000
17225SL      O121896   2.074   9.036   1.513  0.0000  0.0000  0.0000
17225SL      H121897   2.074   9.036   1.611  0.0000  0.0000  0.0000
17226SL     Si121898   2.658   4.295   8.217  0.0000  0.0000  0.0000
17226SL      O121899   2.658   4.295   8.053  0.0000  0.0000  0.0000
17226SL      H121900   2.658   4.295   7.955  0.0000  0.0000  0.0000
17227SL     Si121901   0.033   0.912   1.403  0.0000  0.0000  0.0000
17227SL      O121902   0.033   0.912   1.567  0.0000  0.0000  0.0000
17227SL      H121903   0.033   0.912   1.665  0.0000  0.0000  0.0000
17228SL     Si121904   3.439   5.709   8.182  0.0000  0.0000  0.0000
17228SL      O121905   3.439   5.709   8.018  0.0000  0.0000  0.0000
17228SL      H121906   3.439   5.709   7.920  0.0000  0.0000  0.0000
17229SL     Si121907   9.531   3.515   1.224  0.0000  0.0000  0.0000
17229SL      O121908   9.531   3.515   1.388  0.0000  0.0000  0.0000
17229SL      H121909   9.531   3.515   1.486  0.0000  0.0000  0.0000
17230SL     Si121910   0.124   5.227   1.238  0.0000  0.0000  0.0000
17230SL      O121911   0.124   5.227   1.402  0.0000  0.0000  0.0000
17230SL      H121912   0.124   5.227   1.500  0.0000  0.0000  0.0000
17231SL     Si121913   1.504   4.315   8.461  0.0000  0.0000  0.0000
17231SL      O121914   1.504   4.315   8.297  0.0000  0.0000  0.0000
17231SL      H121915   1.504   4.315   8.199  0.0000  0.0000  0.0000
17232SL     Si121916   8.815   6.982   1.274  0.0000  0.0000  0.0000
17232SL      O121917   8.815   6.982   1.438  0.0000  0.0000  0.0000
17232SL      H121918   8.815   6.982   1.536  0.0000  0.0000  0.0000
17233SL     Si121919   2.256   6.457   1.244  0.0000  0.0000  0.0000
17233SL      O121920   2.256   6.457   1.408  0.0000  0.0000  0.0000
17233SL      H121921   2.256   6.457   1.506  0.0000  0.0000  0.0000
17234SL     Si121922   4.867   6.476   8.338  0.0000  0.0000  0.0000
17234SL      O121923   4.867   6.476   8.174  0.0000  0.0000  0.0000
17234SL      H121924   4.867   6.476   8.076  0.0000  0.0000  0.0000
17235SL     Si121925   5.579   7.204   8.397  0.0000  0.0000  0.0000
17235SL      O121926   5.579   7.204   8.233  0.0000  0.0000  0.0000
17235SL      H121927   5.579   7.204   8.135  0.0000  0.0000  0.0000
17236SL     Si121928   3.095   8.637   8.362  0.0000  0.0000  0.0000
17236SL      O121929   3.095   8.637   8.198  0.0000  0.0000  0.0000
17236SL      H121930   3.095   8.637   8.100  0.0000  0.0000  0.0000
17237SL     Si121931   0.168   5.329   8.271  0.0000  0.0000  0.0000
17237SL      O121932   0.168   5.329   8.107  0.0000  0.0000  0.0000
17237SL      H121933   0.168   5.329   8.009  0.0000  0.0000  0.0000
17238SL     Si121934   5.052   7.053   8.385  0.0000  0.0000  0.0000
17238SL      O121935   5.052   7.053   8.221  0.0000  0.0000  0.0000
17238SL      H121936   5.052   7.053   8.123  0.0000  0.0000  0.0000
17239SL     Si121937   6.954   5.479   1.162  0.0000  0.0000  0.0000
17239SL      O121938   6.954   5.479   1.326  0.0000  0.0000  0.0000
17239SL      H121939   6.954   5.479   1.424  0.0000  0.0000  0.0000
17240SL     Si121940   7.200   5.819   8.255  0.0000  0.0000  0.0000
17240SL      O121941   7.200   5.819   8.091  0.0000  0.0000  0.0000
17240SL      H121942   7.200   5.819   7.993  0.0000  0.0000  0.0000
17241SL     Si121943   5.305   3.188   8.261  0.0000  0.0000  0.0000
17241SL      O121944   5.305   3.188   8.097  0.0000  0.0000  0.0000
17241SL      H121945   5.305   3.188   7.999  0.0000  0.0000  0.0000
17242SL     Si121946   3.251   6.596   1.383  0.0000  0.0000  0.0000
17242SL      O121947   3.251   6.596   1.547  0.0000  0.0000  0.0000
17242SL      H121948   3.251   6.596   1.645  0.0000  0.0000  0.0000
17243SLG    Si121949   3.235   5.766   1.359  0.0000  0.0000  0.0000
17243SLG     O121950   3.235   5.766   1.523  0.0000  0.0000  0.0000
17243SLG     H121951   3.235   5.766   1.621  0.0000  0.0000  0.0000
17243SLG     O221952   3.351   5.766   1.475  0.0000  0.0000  0.0000
17243SLG     H221953   3.351   5.766   1.573  0.0000  0.0000  0.0000
17244SLG    Si121954   1.900   4.205   1.375  0.0000  0.0000  0.0000
17244SLG     O121955   1.900   4.205   1.539  0.0000  0.0000  0.0000
17244SLG     H121956   1.900   4.205   1.637  0.0000  0.0000  0.0000
17244SLG     O221957   2.016   4.205   1.491  0.0000  0.0000  0.0000
17244SLG     H221958   2.016   4.205   1.589  0.0000  0.0000  0.0000
17245SLG    Si121959   1.892   7.029   1.439  0.0000  0.0000  0.0000
17245SLG     O121960   1.892   7.029   1.603  0.0000  0.0000  0.0000
17245SLG     H121961   1.892   7.029   1.701  0.0000  0.0000  0.0000
17245SLG     O221962   2.008   7.029   1.555  0.0000  0.0000  0.0000
17245SLG     H221963   2.008   7.029   1.653  0.0000  0.0000  0.0000
17246SLG    Si121964   6.746   6.932   8.249  0.0000  0.0000  0.0000
17246SLG     O121965   6.746   6.932   8.085  0.0000  0.0000  0.0000
17246SLG     H121966   6.746   6.932   7.987  0.0000  0.0000  0.0000
17246SLG     O221967   6.862   6.932   8.133  0.0000  0.0000  0.0000
17246SLG     H221968   6.862   6.932   8.035  0.0000  0.0000  0.0000
17247SLG    Si121969   7.723   2.047   8.252  0.0000  0.0000  0.0000
17247SLG     O121970   7.723   2.047   8.088  0.0000  0.0000  0.0000
17247SLG     H121971   7.723   2.047   7.990  0.0000  0.0000  0.0000
17247SLG     O221972   7.839   2.047   8.136  0.0000  0.0000  0.0000
17247SLG     H221973   7.839   2.047   8.038  0.0000  0.0000  0.0000
17248SLG    Si121974   5.425   3.990   1.368  0.0000  0.0000  0.0000
17248SLG     O121975   5.425   3.990   1.532  0.0000  0.0000  0.0000
17248SLG     H121976   5.425   3.990   1.630  0.0000  0.0000  0.0000
17248SLG     O221977   5.541   3.990   1.484  0.0000  0.0000  0.0000
17248SLG     H221978   5.541   3.990   1.582  0.0000  0.0000  0.0000
17249SLG    Si121979   5.630   5.402   8.189  0.0000  0.0000  0.0000
17249SLG     O121980   5.630   5.402   8.025  0.0000  0.0000  0.0000
17249SLG     H121981   5.630   5.402   7.927  0.0000  0.0000  0.0000
17249SLG     O221982   5.746   5.402   8.073  0.0000  0.0000  0.0000
17249SLG     H221983   5.746   5.402   7.975  0.0000  0.0000  0.0000
17250SLG    Si121984   5.635   1.006   8.293  0.0000  0.0000  0.0000
17250SLG     O121985   5.635   1.006   8.129  0.0000  0.0000  0.0000
17250SLG     H121986   5.635   1.006   8.031  0.0000  0.0000  0.0000
17250SLG     O221987   5.751   1.006   8.177  0.0000  0.0000  0.0000
17250SLG     H221988   5.751   1.006   8.079  0.0000  0.0000  0.0000
17251SLG    Si121989   2.180   7.557   8.245  0.0000  0.0000  0.0000
17251SLG     O121990   2.180   7.557   8.081  0.0000  0.0000  0.0000
17251SLG     H121991   2.180   7.557   7.983  0.0000  0.0000  0.0000
17251SLG     O221992   2.296   7.557   8.129  0.0000  0.0000  0.0000
17251SLG     H221993   2.296   7.557   8.031  0.0000  0.0000  0.0000
17252SLG    Si121994   8.663   6.942   8.241  0.0000  0.0000  0.0000
17252SLG     O121995   8.663   6.942   8.077  0.0000  0.0000  0.0000
17252SLG     H121996   8.663   6.942   7.979  0.0000  0.0000  0.0000
17252SLG     O221997   8.779   6.942   8.125  0.0000  0.0000  0.0000
17252SLG     H221998   8.779   6.942   8.027  0.0000  0.0000  0.0000
17253SLG    Si121999   7.310   7.021   8.273  0.0000  0.0000  0.0000
17253SLG     O122000   7.310   7.021   8.109  0.0000  0.0000  0.0000
17253SLG     H122001   7.310   7.021   8.011  0.0000  0.0000  0.0000
17253SLG     O222002   7.426   7.021   8.157  0.0000  0.0000  0.0000
17253SLG     H222003   7.426   7.021   8.059  0.0000  0.0000  0.0000
17254SLG    Si122004   3.867   2.701   8.204  0.0000  0.0000  0.0000
17254SLG     O122005   3.867   2.701   8.040  0.0000  0.0000  0.0000
17254SLG     H122006   3.867   2.701   7.942  0.0000  0.0000  0.0000
17254SLG     O222007   3.983   2.701   8.088  0.0000  0.0000  0.0000
17254SLG     H222008   3.983   2.701   7.990  0.0000  0.0000  0.0000
17255SLG    Si122009   2.931   6.318   8.304  0.0000  0.0000  0.0000
17255SLG     O122010   2.931   6.318   8.140  0.0000  0.0000  0.0000
17255SLG     H122011   2.931   6.318   8.042  0.0000  0.0000  0.0000
17255SLG     O222012   3.047   6.318   8.188  0.0000  0.0000  0.0000
17255SLG     H222013   3.047   6.318   8.090  0.0000  0.0000  0.0000
17256SLG    Si122014   1.796   0.779   8.281  0.0000  0.0000  0.0000
17256SLG     O122015   1.796   0.779   8.117  0.0000  0.0000  0.0000
17256SLG     H122016   1.796   0.779   8.019  0.0000  0.0000  0.0000
17256SLG     O222017   1.912   0.779   8.165  0.0000  0.0000  0.0000
17256SLG     H222018   1.912   0.779   8.067  0.0000  0.0000  0.0000
17257SLG    Si122019   6.875   6.037   1.313  0.0000  0.0000  0.0000
17257SLG     O122020   6.875   6.037   1.477  0.0000  0.0000  0.0000
17257SLG     H122021   6.875   6.037   1.575  0.0000  0.0000  0.0000
17257SLG     O222022   6.991   6.037   1.429  0.0000  0.0000  0.0000
17257SLG     H222023   6.991   6.037   1.527  0.0000  0.0000  0.0000
17258SLG    Si122024   1.653   6.334   1.427  0.0000  0.0000  0.0000
17258SLG     O122025   1.653   6.334   1.591  0.0000  0.0000  0.0000
17258SLG     H122026   1.653   6.334   1.689  0.0000  0.0000  0.0000
17258SLG     O222027   1.769   6.334   1.543  0.0000  0.0000  0.0000
17258SLG     H222028   1.769   6.334   1.641  0.0000  0.0000  0.0000
17259SLG    Si122029   5.063   1.971   1.408  0.0000  0.0000  0.0000
17259SLG     O122030   5.063   1.971   1.572  0.0000  0.0000  0.0000
17259SLG     H122031   5.063   1.971   1.670  0.0000  0.0000  0.0000
17259SLG     O222032   5.179   1.971   1.524  0.0000  0.0000  0.0000
17259SLG     H222033   5.179   1.971   1.622  0.0000  0.0000  0.0000
17260SLG    Si122034   2.236   0.198   1.240  0.0000  0.0000  0.0000
17260SLG     O122035   2.236   0.198   1.404  0.0000  0.0000  0.0000
17260SLG     H122036   2.236   0.198   1.502  0.0000  0.0000  0.0000
17260SLG     O222037   2.352   0.198   1.356  0.0000  0.0000  0.0000
17260SLG     H222038   2.352   0.198   1.454  0.0000  0.0000  0.0000
17261SLG    Si122039   4.511   7.317   8.313  0.0000  0.0000  0.0000
17261SLG     O122040   4.511   7.317   8.149  0.0000  0.0000  0.0000
17261SLG     H122041   4.511   7.317   8.051  0.0000  0.0000  0.0000
17261SLG     O222042   4.627   7.317   8.197  0.0000  0.0000  0.0000
17261SLG     H222043   4.627   7.317   8.099  0.0000  0.0000  0.0000
17262SLG    Si122044   6.188   3.734   1.416  0.0000  0.0000  0.0000
17262SLG     O122045   6.188   3.734   1.580  0.0000  0.0000  0.0000
17262SLG     H122046   6.188   3.734   1.678  0.0000  0.0000  0.0000
17262SLG     O222047   6.304   3.734   1.532  0.0000  0.0000  0.0000
17262SLG     H222048   6.304   3.734   1.630  0.0000  0.0000  0.0000
17263SLG    Si122049   8.925   8.793   1.322  0.0000  0.0000  0.0000
17263SLG     O122050   8.925   8.793   1.486  0.0000  0.0000  0.0000
17263SLG     H122051   8.925   8.793   1.584  0.0000  0.0000  0.0000
17263SLG     O222052   9.041   8.793   1.438  0.0000  0.0000  0.0000
17263SLG     H222053   9.041   8.793   1.536  0.0000  0.0000  0.0000
17264THY      O22054   1.549   6.496   3.794  0.6597  0.3859  1.0141
17264THY     HO22055   1.579   6.576   3.748  0.1564 -0.9287  0.4617
17264THY    CA122056   1.649   6.469   3.878  0.0866 -0.2000 -0.6444
17264THY    CA222057   1.637   6.359   3.968  0.6186 -0.7121 -0.1021
17264THY    CP122058   1.494   6.287   3.985  0.4801  0.5163  0.2763
17264THY    HP122059   1.434   6.293   3.893  0.1352  0.6382 -1.0346
17264THY    CP222060   1.413   6.372   4.082  0.0448  0.2458  0.3779
17264THY    HP222061   1.311   6.331   4.078  0.6230 -1.8102 -0.9910
17264THY    HP322062   1.407   6.475   4.044  1.2176 -2.2666 -0.3993
17264THY    HP422063   1.454   6.381   4.184 -1.6093  0.8299  2.1952
17264THY    CP322064   1.508   6.141   4.029 -0.4696  0.0818  0.3688
17264THY    HP522065   1.575   6.088   3.960  0.2414  0.3659  0.8804
17264THY    HP622066   1.412   6.088   4.031  0.4032  0.7001 -1.2341
17264THY    HP722067   1.556   6.135   4.127 -2.6300  1.2348  0.6895
17264THY    CA322068   1.750   6.319   4.047 -0.0206  0.1599  0.1232
17264THY    HA322069   1.738   6.234   4.115  0.0535 -0.9997 -0.8455
17264THY    CA422070   1.869   6.393   4.030 -0.0196 -0.4570 -0.7890
17264THY    HA422071   1.955   6.370   4.093 -0.4001  0.2167 -0.3887
17264THY    CA522072   1.872   6.511   3.949  0.7868 -0.8282 -0.1746
17264THY    CM122073   1.993   6.601   3.962  0.0187  0.2960  0.2710
17264THY    HM122074   1.984   6.644   4.062 -0.4502  0.5307 -0.3630
17264THY    HM222075   1.998   6.690   3.897 -0.5676 -0.5068 -0.2677
17264THY    HM322076   2.086   6.545   3.946 -1.3197 -1.7559 -1.5583
17264THY    CA622077   1.763   6.544   3.867  0.2980 -0.4014 -0.0199
17264THY    HA622078   1.761   6.639   3.814  1.1767  1.0694  0.8603
17265THY      O22079   6.151   6.093   2.355 -0.0038  0.4765 -0.1556
17265THY     HO22080   6.210   6.149   2.301  0.0945 -1.1872 -1.7520
17265THY    CA122081   6.049   6.055   2.273  0.7828 -0.0783 -0.1921
17265THY    CA222082   5.937   5.981   2.318  0.1207 -0.0511 -0.0872
17265THY    CP122083   5.922   5.934   2.462  0.2804  0.2984  0.5170
17265THY    HP122084   6.024   5.911   2.494  0.3135 -0.7478 -0.8892
17265THY    CP222085   5.846   5.804   2.487 -0.4069 -0.1635  0.3352
17265THY    HP222086   5.888   5.725   2.424 -1.7679 -0.7458  0.0468
17265THY    HP322087   5.741   5.818   2.457 -0.6796  1.3484  1.8968
17265THY    HP422088   5.848   5.789   2.595 -1.5548 -0.0324  0.9448
17265THY    CP322089   5.861   6.052   2.537 -0.5543 -0.2672 -0.0678
17265THY    HP522090   5.760   6.060   2.496  0.7245 -3.4412  1.4695
17265THY    HP622091   5.914   6.148   2.528  0.3738 -2.4600 -0.7319
17265THY    HP722092   5.862   6.032   2.645 -0.6698 -0.6026 -2.0791
17265THY    CA322093   5.825   5.964   2.234  0.2570  0.5258  0.4698
17265THY    HA322094   5.739   5.915   2.279  0.2036  2.6062  2.2985
17265THY    CA422095   5.821   6.017   2.105 -0.0001 -0.7946 -0.0449
17265THY    HA422096   5.735   5.998   2.042  1.1998 -2.1780 -1.1242
17265THY    CA522097   5.935   6.091   2.056 -0.2885  0.2679  0.2354
17265THY    CM122098   5.927   6.160   1.919 -0.2208 -0.0360 -0.2379
17265THY    HM122099   5.874   6.256   1.923 -0.5318 -0.5347 -0.3847
17265THY    HM222100   5.871   6.092   1.854  0.4497  0.0680 -0.9083
17265THY    HM322101   6.026   6.181   1.877 -0.9468 -0.4653  2.8220
17265THY    CA622102   6.041   6.105   2.141  0.2414 -0.7141 -0.0853
17265THY    HA622103   6.123   6.166   2.106  0.3332 -1.6495 -0.7335
17266THY      O22104   3.433   5.247   5.698  0.2706  0.2612  0.1543
17266THY     HO22105   3.383   5.292   5.768 -2.1299 -1.7501  0.8161
17266THY    CA122106   3.389   5.118   5.720 -0.5454  0.3850 -0.3805
17266THY    CA222107   3.416   5.020   5.622  0.2500 -0.1660  0.3976
17266THY    CP122108   3.510   5.052   5.501  0.2278  1.0378 -0.2407
17266THY    HP122109   3.532   5.160   5.504 -0.0136  1.3679 -0.1993
17266THY    CP222110   3.439   5.015   5.360 -0.3709 -0.3079 -0.0291
17266THY    HP222111   3.343   5.067   5.354  0.8797 -2.1828  2.2626
17266THY    HP322112   3.425   4.907   5.348  1.5961  1.0324 -0.4868
17266THY    HP422113   3.502   5.053   5.279  0.2667  0.5748  0.8352
17266THY    CP322114   3.643   4.980   5.515  0.2738  0.2578  0.4447
17266THY    HP522115   3.625   4.875   5.490 -1.6620  2.0368  0.2952
17266THY    HP622116   3.679   4.994   5.617 -0.7623  1.0396 -2.0603
17266THY    HP722117   3.712   5.009   5.435  0.2798 -0.5470 -1.5831
17266THY    CA322118   3.372   4.892   5.651 -0.9043  0.0633  0.6477
17266THY    HA322119   3.390   4.810   5.582  1.4208  1.6027 -0.2671
17266THY    CA422120   3.303   4.868   5.769 -0.5061 -0.0490  0.3118
17266THY    HA422121   3.265   4.768   5.788 -0.9957 -4.1470 -0.4760
17266THY    CA522122   3.259   4.975   5.852 -0.2629  0.6812 -0.5242
17266THY    CM122123   3.180   4.943   5.969 -0.1962  0.1913  0.1921
17266THY    HM122124   3.094   4.878   5.948  0.3198 -1.2971 -0.0462
17266THY    HM222125   3.136   5.035   6.009 -0.2530  1.4459 -0.3713
17266THY    HM322126   3.240   4.897   6.047 -2.9769  2.1074 -0.4519
17266THY    CA622127   3.307   5.103   5.826 -0.4074  0.1753  0.2070
17266THY    HA622128   3.285   5.183   5.895 -0.3911 -0.5275  0.8263
17267THY      O22129   8.426   7.018   5.505  0.0557 -0.8259  0.1161
17267THY     HO22130   8.391   7.108   5.512 -0.6187  1.3522 -0.2572
17267THY    CA122131   8.560   7.036   5.480  0.8921 -0.7560 -0.9845
17267THY    CA222132   8.652   6.930   5.477 -0.6502  0.1134 -0.8702
17267THY    CP122133   8.610   6.792   5.516  0.0812  0.5459 -0.0336
17267THY    HP122134   8.503   6.781   5.539  0.2213  0.1859 -2.7075
17267THY    CP222135   8.677   6.769   5.646  0.0031  0.0254 -0.0015
17267THY    HP222136   8.657   6.667   5.681  0.9462  0.4553 -0.0494
17267THY    HP322137   8.633   6.827   5.728  3.3313  2.4924 -0.6553
17267THY    HP422138   8.784   6.791   5.643 -0.5051  1.0308  3.2102
17267THY    CP322139   8.636   6.685   5.401 -0.1481 -0.5138  0.5604
17267THY    HP522140   8.743   6.676   5.379 -0.0912  0.5261 -2.3243
17267THY    HP622141   8.579   6.716   5.313  0.4765 -1.0630  0.1769
17267THY    HP722142   8.588   6.592   5.435 -2.0365  0.5950  1.8683
17267THY    CA322143   8.786   6.959   5.440  0.1877  0.0136 -0.1505
17267THY    HA322144   8.860   6.882   5.463  0.9883 -0.0924  0.5720
17267THY    CA422145   8.820   7.091   5.407 -0.1014 -0.2902 -0.0922
17267THY    HA422146   8.921   7.113   5.374  1.3725  3.1050 -1.1831
17267THY    CA522147   8.721   7.190   5.397  0.0179  0.3271  0.0419
17267THY    CM122148   8.745   7.323   5.336 -0.2029 -0.0273  0.0196
17267THY    HM122149   8.853   7.333   5.320 -0.4611 -1.0745  1.4667
17267THY    HM222150   8.705   7.408   5.393 -1.1624 -1.8492  0.8498
17267THY    HM322151   8.700   7.327   5.236 -0.3859  0.0517 -0.0364
17267THY    CA622152   8.589   7.158   5.429 -0.8540  0.3059  0.0656
17267THY    HA622153   8.512   7.234   5.425 -0.3696  0.7236  0.5844
17268THY      O22154   9.173   3.598   3.159  0.0510  0.1019 -0.5629
17268THY     HO22155   9.194   3.636   3.072 -1.6715 -1.0669 -2.1256
17268THY    CA122156   9.217   3.678   3.254  0.1163 -0.2474 -0.1960
17268THY    CA222157   9.156   3.691   3.383  0.2691  0.3385  0.1883
17268THY    CP122158   9.021   3.624   3.422  0.9616  0.3230 -0.0158
17268THY    HP122159   8.963   3.640   3.331 -1.8854  2.3917  3.1328
17268THY    CP222160   8.933   3.700   3.518  0.3462 -0.1399 -0.2833
17268THY    HP222161   8.917   3.804   3.486 -2.0991  0.6973 -0.3492
17268THY    HP322162   8.985   3.714   3.614 -0.6120  0.1332  1.9045
17268THY    HP422163   8.834   3.653   3.524  0.5016  0.4184 -0.5517
17268THY    CP322164   9.028   3.478   3.466  0.0987  0.9309  0.4675
17268THY    HP522165   9.078   3.470   3.563 -0.1430  1.0953  0.9131
17268THY    HP622166   9.084   3.428   3.386  0.1447  1.6944 -0.7343
17268THY    HP722167   8.929   3.433   3.457  0.6604 -0.8080 -0.5362
17268THY    CA322168   9.230   3.759   3.481  0.0331  0.1375  0.0699
17268THY    HA322169   9.204   3.745   3.586  3.4506  0.9728 -1.2129
17268THY    CA422170   9.347   3.829   3.450 -0.2884 -0.7652 -0.2545
17268THY    HA422171   9.400   3.885   3.527 -0.6625 -0.0156 -0.9077
17268THY    CA522172   9.397   3.821   3.324 -0.0965 -0.5522  0.4707
17268THY    CM122173   9.530   3.886   3.288  0.5395 -0.0991  0.1814
17268THY    HM122174   9.502   3.992   3.289  2.8287  0.4826  0.8299
17268THY    HM222175   9.554   3.866   3.183  0.9299  0.1767 -0.8333
17268THY    HM322176   9.604   3.865   3.365 -1.6866  1.3142 -3.3572
17268THY    CA622177   9.327   3.750   3.225  0.2221 -0.1967 -0.1316
17268THY    HA622178   9.372   3.731   3.128  2.5986  1.2076 -2.3770
17269THY      O22179   6.218   9.090   6.720 -0.3790  0.3099 -0.1933
17269THY     HO22180   6.308   9.058   6.708 -0.5306 -1.5490 -0.0336
17269THY    CA122181   6.140   9.036   6.620 -0.0194 -0.0491  0.2917
17269THY    CA222182   5.999   9.045   6.620 -0.0845 -0.4784  0.3656
17269THY    CP122183   5.914   9.115   6.727 -0.1359 -0.5762 -0.7643
17269THY    HP122184   5.975   9.164   6.804  0.4313 -0.2545 -1.9525
17269THY    CP222185   5.818   9.016   6.801  0.1863 -0.9316  0.8108
17269THY    HP222186   5.872   8.973   6.886 -2.8902  0.4517 -0.6394
17269THY    HP322187   5.781   8.929   6.747  1.9398 -1.2469  0.2186
17269THY    HP422188   5.737   9.075   6.848 -0.1611  0.5463 -0.7637
17269THY    CP322189   5.842   9.234   6.667 -0.0279  0.5429 -0.0877
17269THY    HP522190   5.781   9.209   6.579  0.8253 -0.2634  0.6262
17269THY    HP622191   5.912   9.302   6.619 -0.7904  0.3806  0.6001
17269THY    HP722192   5.795   9.296   6.744  1.3855  1.7314 -0.4564
17269THY    CA322193   5.928   8.982   6.517  0.3199  0.6048  0.2575
17269THY    HA322194   5.822   8.990   6.499  0.4674 -0.0160  0.9271
17269THY    CA422195   5.998   8.916   6.421  0.0732  0.5147  0.0604
17269THY    HA422196   5.953   8.874   6.332  0.2238  0.0734  0.8153
17269THY    CA522197   6.139   8.912   6.420  1.2338 -0.3003 -0.2605
17269THY    CM122198   6.210   8.839   6.313 -0.3277  0.3250 -0.0329
17269THY    HM122199   6.232   8.734   6.336  1.2174  1.9721  0.5870
17269THY    HM222200   6.313   8.873   6.293 -1.2984 -4.4111  0.8516
17269THY    HM322201   6.159   8.851   6.217 -1.4512  0.7058 -1.5038
17269THY    CA622202   6.209   8.974   6.527 -0.1700  0.0900  0.1817
17269THY    HA622203   6.316   8.957   6.523 -0.4905 -1.3430 -2.0418
17270THY      O22204   4.843   7.800   5.942 -0.2793  0.2758 -0.2179
17270THY     HO22205   4.843   7.863   6.017  0.6087 -0.6131  0.8736
17270THY    CA122206   4.720   7.746   5.929 -0.0542  0.0494 -0.0659
17270THY    CA222207   4.706   7.614   5.877 -0.3520  0.1405  0.2599
17270THY    CP122208   4.838   7.534   5.850 -0.0713  0.7579 -1.0902
17270THY    HP122209   4.930   7.586   5.878 -0.1235  1.8428 -1.5594
17270THY    CP222210   4.841   7.494   5.696  0.1386 -0.0421 -0.3559
17270THY    HP222211   4.846   7.590   5.644  1.3881  0.7419  0.0227
17270THY    HP322212   4.754   7.429   5.675  0.4558  0.6979 -1.0448
17270THY    HP422213   4.933   7.440   5.672  0.3279 -2.7377  1.0086
17270THY    CP322214   4.843   7.404   5.929  0.4157  0.2819 -0.0304
17270THY    HP522215   4.744   7.357   5.930  1.5440  2.7422 -2.6393
17270THY    HP622216   4.871   7.433   6.031  2.4447 -0.6563  1.5738
17270THY    HP722217   4.921   7.336   5.894 -1.2282  0.1887 -1.9760
17270THY    CA322218   4.580   7.557   5.860 -0.3369  0.3848  0.4911
17270THY    HA322219   4.569   7.456   5.822  0.7540  0.1951  0.4314
17270THY    CA422220   4.468   7.641   5.888 -0.2846 -0.2278  0.3172
17270THY    HA422221   4.368   7.601   5.873  0.1193  0.9133 -1.2477
17270THY    CA522222   4.483   7.768   5.942 -0.2318 -0.4308 -0.2341
17270THY    CM122223   4.361   7.856   5.961  0.1923  0.3815  0.5078
17270THY    HM122224   4.396   7.949   6.006  1.5681 -0.0069  0.2008
17270THY    HM222225   4.297   7.791   6.022  0.4099  1.2896  1.1296
17270THY    HM322226   4.316   7.879   5.863  0.1715  0.1869 -0.3051
17270THY    CA622227   4.613   7.825   5.950  1.3368 -0.2027  0.2531
17270THY    HA622228   4.618   7.929   5.983 -1.1668 -1.6189  0.9125
17271THY      O22229   5.006   8.152   5.889 -0.2661 -0.0207 -0.6311
17271THY     HO22230   5.024   8.245   5.867 -1.2552 -0.4390 -0.5191
17271THY    CA122231   5.130   8.090   5.898  0.7504 -0.0781  0.6020
17271THY    CA222232   5.161   7.979   5.816  0.2588  0.3298 -0.2772
17271THY    CP122233   5.058   7.929   5.703  0.0727 -0.2710 -1.0577
17271THY    HP122234   4.955   7.944   5.737 -1.2216 -4.0817 -0.2511
17271THY    CP222235   5.073   7.783   5.656 -0.0267  0.3650 -0.4650
17271THY    HP222236   4.995   7.776   5.580  1.3740 -1.4729  2.2313
17271THY    HP322237   5.064   7.706   5.734  1.7490 -0.2039 -1.3196
17271THY    HP422238   5.169   7.764   5.606 -1.4258 -1.9177 -2.1236
17271THY    CP322239   5.096   8.025   5.587 -0.8107  0.3246  0.8589
17271THY    HP522240   5.204   8.032   5.572 -0.6015 -0.4092 -2.3314
17271THY    HP622241   5.059   8.125   5.613  0.6391 -1.6655  1.9579
17271THY    HP722242   5.049   8.007   5.490 -0.2261 -0.0120  1.1359
17271THY    CA322243   5.285   7.917   5.841  0.1121  0.1746  0.4471
17271THY    HA322244   5.313   7.830   5.783  1.2975  0.4482  0.6315
17271THY    CA422245   5.373   7.968   5.944 -0.0669  0.0673  0.0970
17271THY    HA422246   5.470   7.923   5.968  0.3410 -2.1367 -0.3066
17271THY    CA522247   5.337   8.075   6.021 -0.5585 -0.4405 -0.0616
17271THY    CM122248   5.425   8.123   6.140 -0.2081  0.5735  0.1368
17271THY    HM122249   5.529   8.090   6.133 -0.6514  0.2285 -1.2699
17271THY    HM222250   5.385   8.097   6.239 -0.0300  1.3324  2.5049
17271THY    HM322251   5.423   8.233   6.140  0.3240  1.0182  0.1494
17271THY    CA622252   5.218   8.138   5.997  0.3026 -0.4547 -0.1370
17271THY    HA622253   5.203   8.233   6.047  2.1776 -0.2428  0.0758
17272THY      O22254   9.161   6.316   5.680  0.4035 -0.1740  0.1123
17272THY     HO22255   9.153   6.321   5.777 -0.8506 -0.2490 -0.2532
17272THY    CA122256   9.041   6.291   5.621 -1.1108  0.4015 -0.3686
17272THY    CA222257   9.037   6.252   5.489  0.1152  0.1057  0.5890
17272THY    CP122258   9.163   6.219   5.403  0.1672  0.5730 -0.0325
17272THY    HP122259   9.258   6.224   5.457  0.7776 -0.5489  0.8995
17272THY    CP222260   9.179   6.320   5.289  0.4612 -0.1602 -0.5854
17272THY    HP222261   9.163   6.424   5.319 -0.5544  0.4106 -0.8839
17272THY    HP322262   9.104   6.304   5.210 -0.1182  0.1665  0.4077
17272THY    HP422263   9.277   6.308   5.241  0.1498 -0.5818 -1.5397
17272THY    CP322264   9.159   6.080   5.346  0.5782 -0.2514  0.2027
17272THY    HP522265   9.058   6.054   5.312 -0.0468 -1.6008  3.7592
17272THY    HP622266   9.194   6.016   5.427 -0.6948  1.1154  1.1725
17272THY    HP722267   9.232   6.074   5.264 -0.2529 -1.2542  2.4607
17272THY    CA322268   8.910   6.254   5.430 -0.2506  0.7685 -0.0100
17272THY    HA322269   8.899   6.224   5.326  1.0592 -0.0305  2.0661
17272THY    CA422270   8.793   6.273   5.501  0.3323 -0.5968  0.1141
17272THY    HA422271   8.696   6.263   5.454 -0.0176  0.0114  0.6053
17272THY    CA522272   8.792   6.311   5.634  0.4416  0.3300  0.0722
17272THY    CM122273   8.666   6.345   5.701  0.5332 -0.0994 -0.5383
17272THY    HM122274   8.586   6.270   5.691  0.2210  2.1008 -0.5616
17272THY    HM222275   8.632   6.441   5.661  0.7155 -3.5626 -1.7884
17272THY    HM322276   8.680   6.367   5.808 -0.7721 -0.0132 -0.0765
17272THY    CA622277   8.924   6.326   5.693  0.6001 -0.6157 -0.1655
17272THY    HA622278   8.923   6.357   5.797  1.3309 -0.4934 -0.5245
17273THY      O22279   6.215   7.347   6.549 -0.0418  0.0304 -0.2249
17273THY     HO22280   6.280   7.300   6.494 -0.4280  0.6399 -1.5200
17273THY    CA122281   6.148   7.249   6.605 -0.1383  0.1586 -0.2222
17273THY    CA222282   6.034   7.269   6.681  0.7939  0.4961 -0.2995
17273THY    CP122283   5.979   7.410   6.709  0.1944  0.0442 -0.7954
17273THY    HP122284   6.049   7.489   6.680 -0.4080  0.6350 -0.0397
17273THY    CP222285   5.949   7.431   6.864 -0.0594  0.8411  0.3092
17273THY    HP222286   6.037   7.395   6.919  0.9388 -0.8357  0.1032
17273THY    HP322287   5.859   7.378   6.897 -1.4261 -1.9139  0.7312
17273THY    HP422288   5.921   7.532   6.897 -0.9158  0.6585  0.1384
17273THY    CP322289   5.853   7.422   6.620  0.3620  0.8282 -0.4245
17273THY    HP522290   5.882   7.412   6.514  0.1548  0.7085  0.1490
17273THY    HP622291   5.795   7.514   6.635  0.7472  2.0055 -0.3657
17273THY    HP722292   5.782   7.342   6.642 -1.8942  0.1066  1.2482
17273THY    CA322293   5.973   7.158   6.748  0.2148 -0.3754 -0.3023
17273THY    HA322294   5.889   7.168   6.816  0.6055 -0.2319  3.6440
17273THY    CA422295   6.026   7.027   6.724 -0.0204  0.6041  0.2901
17273THY    HA422296   5.982   6.939   6.770 -1.1757 -1.1641 -0.1059
17273THY    CA522297   6.143   7.006   6.644  0.0253 -0.4835  0.5585
17273THY    CM122298   6.182   6.858   6.622  0.0270 -0.1276  0.4232
17273THY    HM122299   6.246   6.830   6.706 -0.8203  0.9091  1.4836
17273THY    HM222300   6.225   6.848   6.522 -1.8821 -1.0618  1.0406
17273THY    HM322301   6.090   6.798   6.616  1.1526 -1.0034 -1.2836
17273THY    CA622302   6.203   7.119   6.583 -0.1684  0.9933 -0.2682
17273THY    HA622303   6.283   7.107   6.509  0.5977  1.1204  3.1259
17274THY      O22304   6.391   4.458   3.302  0.6875  0.1020  0.1400
17274THY     HO22305   6.351   4.393   3.241 -0.2530  0.4670  0.3580
17274THY    CA122306   6.334   4.581   3.287 -0.0165 -0.0157 -0.1382
17274THY    CA222307   6.384   4.685   3.371  0.5874 -0.1588 -0.5883
17274THY    CP122308   6.486   4.650   3.487  0.6866  0.0877 -0.0372
17274THY    HP122309   6.465   4.546   3.512 -0.5619 -1.6286 -0.2548
17274THY    CP222310   6.453   4.738   3.616 -0.7236  0.2531  0.8635
17274THY    HP222311   6.350   4.729   3.652 -0.6903  0.3554  0.8973
17274THY    HP322312   6.472   4.842   3.589 -1.5209 -1.2347  0.6578
17274THY    HP422313   6.527   4.704   3.690 -1.1807 -0.0034 -0.7901
17274THY    CP322314   6.628   4.685   3.449 -0.7737 -0.5339 -0.6418
17274THY    HP522315   6.674   4.597   3.401  2.8632 -0.4770  1.0147
17274THY    HP622316   6.694   4.699   3.535 -2.2969  0.8171 -1.5879
17274THY    HP722317   6.635   4.776   3.387 -1.3564  1.5371  0.8972
17274THY    CA322318   6.338   4.815   3.351 -0.1445  0.5569  0.4280
17274THY    HA322319   6.378   4.887   3.422  2.2671  1.0623 -1.2842
17274THY    CA422320   6.248   4.836   3.242 -0.0643  0.5709 -0.5660
17274THY    HA422321   6.217   4.939   3.231  1.0416  2.3318 -0.0075
17274THY    CA522322   6.193   4.728   3.166 -0.5507 -0.1287 -0.1285
17274THY    CM122323   6.094   4.763   3.057 -0.3350 -0.0126  0.0739
17274THY    HM122324   6.007   4.696   3.056  0.9135  0.1861 -1.6154
17274THY    HM222325   6.143   4.762   2.959  0.7752  0.4964 -2.3716
17274THY    HM322326   6.053   4.864   3.071 -4.3695 -2.1229 -1.0787
17274THY    CA622327   6.241   4.601   3.191 -0.3847  0.8457 -0.4643
17274THY    HA622328   6.202   4.527   3.122  0.2030  1.0035 -0.9255
17275THY      O22329   2.758   0.773   1.852 -0.3616 -0.1295  0.2973
17275THY     HO22330   2.693   0.836   1.817 -0.7692  0.1831  0.0479
17275THY    CA122331   2.883   0.819   1.820  0.0916  0.3592  0.5500
17275THY    CA222332   3.004   0.743   1.830  0.0243 -0.2407  0.0156
17275THY    CP122333   3.010   0.604   1.884  0.2161 -0.0517 -0.5531
17275THY    HP122334   2.910   0.579   1.923  0.9427  1.8313 -0.7206
17275THY    CP222335   3.111   0.596   1.999  0.2651 -0.3741 -0.6748
17275THY    HP222336   3.217   0.594   1.969 -0.3272 -2.6092 -1.1519
17275THY    HP322337   3.087   0.508   2.060  2.2259  1.9682  0.2929
17275THY    HP422338   3.082   0.681   2.062 -2.3012 -1.3909 -0.7164
17275THY    CP322339   3.037   0.497   1.781 -0.6995  0.3194 -0.1024
17275THY    HP522340   3.039   0.402   1.836 -1.5555  1.5435  0.5687
17275THY    HP622341   3.137   0.519   1.743 -0.6475  0.1622 -0.5916
17275THY    HP722342   2.961   0.486   1.702 -0.3696 -0.0595  0.2871
17275THY    CA322343   3.125   0.805   1.796  0.0558  0.4052  0.4287
17275THY    HA322344   3.217   0.748   1.795  1.0212 -1.2166  1.9314
17275THY    CA422345   3.120   0.941   1.769 -0.4873 -0.4065 -0.7266
17275THY    HA422346   3.208   0.994   1.735 -0.7835  1.6726  1.2194
17275THY    CA522347   3.000   1.016   1.767  0.0541  0.0422 -1.3088
17275THY    CM122348   3.003   1.163   1.746 -0.8033 -0.2802  0.0030
17275THY    HM122349   3.104   1.191   1.714  0.1051 -0.2207 -2.9032
17275THY    HM222350   2.982   1.209   1.844  0.6044 -0.5338  1.2697
17275THY    HM322351   2.923   1.184   1.675 -0.0314 -1.2164 -0.1377
17275THY    CA622352   2.882   0.955   1.805  0.3879 -0.0095 -0.3206
17275THY    HA622353   2.787   1.007   1.805 -0.6050  1.5983 -2.0204
17276THY      O22354   8.112   6.278   7.569  0.0112 -0.2056  0.0035
17276THY     HO22355   8.060   6.360   7.564  0.6791  1.0982  0.5433
17276THY    CA122356   8.178   6.278   7.693  0.1868  0.0918  0.0064
17276THY    CA222357   8.277   6.183   7.719 -0.3517 -0.7739 -0.9746
17276THY    CP122358   8.321   6.091   7.605  0.4027  0.2309  0.4216
17276THY    HP122359   8.290   6.127   7.506  0.8620 -0.0652  0.0180
17276THY    CP222360   8.255   5.951   7.629 -0.2132 -1.0257 -0.5058
17276THY    HP222361   8.284   5.879   7.551  1.4371 -0.6491 -0.2809
17276THY    HP322362   8.147   5.967   7.618 -0.1159 -2.5577 -0.7263
17276THY    HP422363   8.285   5.908   7.724  1.4714  0.1578  2.9294
17276THY    CP322364   8.472   6.069   7.605 -0.5217 -0.3012  0.5729
17276THY    HP522365   8.520   6.154   7.556 -3.1289 -2.4935  0.9234
17276THY    HP622366   8.491   5.982   7.540 -1.9750  0.4685 -0.3792
17276THY    HP722367   8.514   6.046   7.704  1.2268 -0.6019  2.2875
17276THY    CA322368   8.325   6.174   7.856  0.2283  1.0577  0.6883
17276THY    HA322369   8.407   6.109   7.884 -0.1137  0.3134 -0.0822
17276THY    CA422370   8.270   6.257   7.956  0.1498 -0.0248 -0.4231
17276THY    HA422371   8.314   6.268   8.055  1.2087 -0.4732 -0.5000
17276THY    CA522372   8.167   6.345   7.925  0.0074  0.8357  1.0439
17276THY    CM122373   8.110   6.435   8.032 -0.3068 -0.2131  0.0205
17276THY    HM122374   8.033   6.372   8.078 -2.2582 -1.9531  1.0075
17276THY    HM222375   8.066   6.522   7.980  1.9482 -0.6540  0.9767
17276THY    HM322376   8.177   6.465   8.113 -1.1911  0.5727 -0.1022
17276THY    CA622377   8.121   6.354   7.792 -0.2028  0.2883 -0.1907
17276THY    HA622378   8.053   6.432   7.762 -1.0589 -0.7534 -1.3181
17277THY      O22379   4.194   8.355   1.680  0.0558  0.1205  0.4356
17277THY     HO22380   4.246   8.273   1.677 -0.0769 -1.9980  0.3837
17277THY    CA122381   4.280   8.457   1.697  0.1584  0.1318 -0.5622
17277THY    CA222382   4.238   8.590   1.695 -0.5655 -0.6346 -0.1917
17277THY    CP122383   4.091   8.619   1.684 -1.0241  0.5701 -0.1320
17277THY    HP122384   4.025   8.532   1.689 -1.8996 -0.9726  0.4105
17277THY    CP222385   4.058   8.689   1.552 -0.2975  0.4128 -0.1955
17277THY    HP222386   4.110   8.785   1.536 -0.6026  2.2143  0.3074
17277THY    HP322387   3.956   8.728   1.544 -1.2993  1.4323 -2.4533
17277THY    HP422388   4.090   8.619   1.473  1.7222  0.3480  0.7394
17277THY    CP322389   4.051   8.724   1.800 -0.8161  0.0980 -0.6367
17277THY    HP522390   4.091   8.695   1.898 -0.1724 -0.2050 -0.8049
17277THY    HP622391   3.942   8.735   1.796 -1.3131  1.3256 -4.0707
17277THY    HP722392   4.089   8.825   1.783 -0.4590 -0.0634 -0.7967
17277THY    CA322393   4.335   8.692   1.732 -0.2012 -0.3340  0.1004
17277THY    HA322394   4.317   8.798   1.741  1.6089  1.4329  0.3120
17277THY    CA422395   4.468   8.660   1.758  0.8806  0.4270  0.2735
17277THY    HA422396   4.535   8.744   1.774 -0.3807  2.3695  0.9924
17277THY    CA522397   4.503   8.526   1.760  0.0999 -0.2551 -0.2263
17277THY    CM122398   4.642   8.492   1.791 -0.6308 -0.1223 -0.0669
17277THY    HM122399   4.669   8.386   1.796  0.5096 -0.9986  0.1484
17277THY    HM222400   4.666   8.536   1.889 -1.3193 -0.4785  1.1526
17277THY    HM322401   4.706   8.524   1.708 -0.1336 -1.1733 -3.4136
17277THY    CA622402   4.409   8.426   1.733 -0.2051 -0.4774  0.4054
17277THY    HA622403   4.438   8.323   1.715 -2.3311  3.5005 -1.1422
17278THY      O22404   5.659   7.509   5.290 -0.0257 -0.1538 -0.0788
17278THY     HO22405   5.742   7.463   5.310  1.0703  0.7424  2.1338
17278THY    CA122406   5.619   7.568   5.400 -0.2099 -0.5665 -0.4053
17278THY    CA222407   5.536   7.675   5.400 -0.2506  0.5450 -0.5403
17278THY    CP122408   5.493   7.744   5.277 -0.1920 -0.3688 -0.0246
17278THY    HP122409   5.517   7.692   5.184  2.1311 -0.6961  1.5077
17278THY    CP222410   5.552   7.885   5.253  0.4179  0.1625  0.6347
17278THY    HP222411   5.512   7.930   5.161 -0.0073  0.5621  1.0924
17278THY    HP322412   5.660   7.875   5.244  0.3493  1.2447 -1.6634
17278THY    HP422413   5.532   7.950   5.339 -1.8319 -0.6668  1.1580
17278THY    CP322414   5.336   7.764   5.270 -0.1815 -0.7963 -0.1929
17278THY    HP522415   5.294   7.784   5.171 -1.5052  0.0280  1.2362
17278THY    HP622416   5.298   7.842   5.337 -2.1529  1.4867 -2.8841
17278THY    HP722417   5.286   7.673   5.305  0.8473 -0.2008 -0.5581
17278THY    CA322418   5.498   7.729   5.524  0.8211  0.2714 -0.0447
17278THY    HA322419   5.430   7.814   5.533  1.1282 -0.1787  0.2572
17278THY    CA422420   5.542   7.673   5.640  0.8847 -0.4814 -0.2068
17278THY    HA422421   5.508   7.706   5.737  2.6599  0.2224 -0.3233
17278THY    CA522422   5.624   7.567   5.644  0.0615 -0.0916  0.6840
17278THY    CM122423   5.671   7.500   5.776  0.2290  0.3007  0.2687
17278THY    HM122424   5.629   7.400   5.797  0.7588  3.1099  0.5484
17278THY    HM222425   5.644   7.572   5.854  0.0357 -0.5707  1.1416
17278THY    HM322426   5.779   7.483   5.773  0.0624 -0.1494 -0.7729
17278THY    CA622427   5.662   7.512   5.519  0.5034 -0.5993  0.5949
17278THY    HA622428   5.721   7.421   5.528 -0.4270  1.1450  0.1254
17279THY      O22429   4.765   5.397   4.787  0.7947 -0.5356  0.1672
17279THY     HO22430   4.818   5.442   4.719 -1.0962 -0.6404  2.4107
17279THY    CA122431   4.702   5.494   4.857  0.5208 -1.2393  0.0552
17279THY    CA222432   4.687   5.481   4.993 -0.0777 -0.6570  0.1373
17279THY    CP122433   4.739   5.349   5.062 -0.0846 -0.4769 -0.1572
17279THY    HP122434   4.833   5.318   5.015  0.1370  1.0147 -1.9382
17279THY    CP222435   4.633   5.240   5.032 -0.3980 -0.2831 -0.2261
17279THY    HP222436   4.532   5.280   5.049 -0.3203  0.1347 -0.2105
17279THY    HP322437   4.640   5.151   5.095 -0.9654  1.0703  0.6559
17279THY    HP422438   4.645   5.212   4.927 -1.1794 -0.6825  0.8572
17279THY    CP322439   4.760   5.364   5.211 -0.8691  0.5735 -0.1487
17279THY    HP522440   4.668   5.345   5.268 -1.5086 -0.7914 -1.4036
17279THY    HP622441   4.798   5.463   5.237 -0.6690 -0.7776  0.1493
17279THY    HP722442   4.846   5.304   5.243 -1.6208 -0.4353 -1.8553
17279THY    CA322443   4.624   5.583   5.064 -0.0291  0.0229  0.4587
17279THY    HA322444   4.613   5.585   5.172 -1.2759 -0.0861  0.4328
17279THY    CA422445   4.572   5.694   4.988  0.2402 -0.2289  0.5123
17279THY    HA422446   4.513   5.772   5.036  0.9537 -2.0999  2.2666
17279THY    CA522447   4.594   5.701   4.855  0.0115 -0.6888  0.7241
17279THY    CM122448   4.543   5.815   4.779  0.0462  0.4618 -1.0015
17279THY    HM122449   4.436   5.834   4.784  0.0162 -2.7641  0.2473
17279THY    HM222450   4.581   5.812   4.676 -1.4260 -0.1507  0.1196
17279THY    HM322451   4.591   5.904   4.823 -0.3474 -0.2590 -0.4215
17279THY    CA622452   4.655   5.602   4.786 -0.7903 -0.7967  0.9380
17279THY    HA622453   4.666   5.602   4.678  1.8873 -0.6226 -0.9836
17280THY      O22454   6.793   8.460   7.599 -0.2600  0.3076  0.4010
17280THY     HO22455   6.795   8.492   7.691 -0.2094  0.5822 -0.3760
17280THY    CA122456   6.819   8.567   7.519  0.1456 -0.3905  0.4854
17280THY    CA222457   6.747   8.589   7.405  0.0916  0.2076 -0.2697
17280THY    CP122458   6.634   8.499   7.368  0.5669 -0.4821  0.0945
17280THY    HP122459   6.644   8.401   7.415 -0.6359 -0.0753  0.1512
17280THY    CP222460   6.621   8.478   7.220  0.1947  0.6884  0.2162
17280THY    HP222461   6.716   8.436   7.186  0.6148  3.1868 -1.0388
17280THY    HP322462   6.575   8.566   7.173  0.2836 -1.0950 -0.6309
17280THY    HP422463   6.548   8.399   7.199 -0.2292  1.4626  0.3936
17280THY    CP322464   6.495   8.551   7.425  0.1072  0.7062  0.0557
17280THY    HP522465   6.421   8.473   7.404  0.8401  1.7851 -0.9601
17280THY    HP622466   6.464   8.641   7.370 -3.3695  1.0767 -0.7762
17280THY    HP722467   6.504   8.579   7.531  0.1956  0.5492  0.6384
17280THY    CA322468   6.776   8.708   7.331 -0.3243 -0.4955  0.5070
17280THY    HA322469   6.731   8.737   7.237  0.6148 -0.7350  1.2581
17280THY    CA422470   6.887   8.789   7.368 -0.1892 -0.0771 -0.2448
17280THY    HA422471   6.918   8.873   7.306 -2.4975 -0.5875  0.2776
17280THY    CA522472   6.959   8.766   7.486 -0.0071 -0.1832  0.8557
17280THY    CM122473   7.071   8.856   7.526 -0.3139 -0.0642  0.2081
17280THY    HM122474   7.136   8.893   7.446 -1.4152 -0.7541  0.6917
17280THY    HM222475   7.134   8.822   7.609  1.9075 -0.6608  2.5556
17280THY    HM322476   7.024   8.940   7.579  0.0848  0.5006  0.0832
17280THY    CA622477   6.918   8.660   7.561  0.3008 -0.7114 -0.5888
17280THY    HA622478   6.971   8.650   7.655  2.0563 -1.3013  2.0339
17281THY      O22479   3.227   5.295   5.483 -0.1396  0.8589  0.5702
17281THY     HO22480   3.312   5.273   5.523  1.1212 -0.2269  3.0781
17281THY    CA122481   3.258   5.360   5.368 -0.6315 -0.0643  0.7115
17281THY    CA222482   3.165   5.378   5.265 -1.0564  0.5003  0.8019
17281THY    CP122483   3.033   5.309   5.259  0.6036 -0.2162  0.8291
17281THY    HP122484   3.030   5.245   5.348  0.7251 -0.2212  0.8150
17281THY    CP222485   3.027   5.205   5.150 -0.5038  0.1567 -0.3262
17281THY    HP222486   3.080   5.115   5.184  0.4026 -0.4115 -0.0286
17281THY    HP322487   3.085   5.246   5.066 -1.9074 -0.9020 -0.4229
17281THY    HP422488   2.922   5.179   5.130 -1.1045  1.4662  0.9808
17281THY    CP322489   2.911   5.408   5.253  0.1626 -0.1591 -0.3087
17281THY    HP522490   2.899   5.468   5.344  0.0878 -0.2773 -0.1438
17281THY    HP622491   2.825   5.341   5.246 -0.1924  1.0100 -0.0113
17281THY    HP722492   2.914   5.478   5.169  0.9339  2.1992  2.7540
17281THY    CA322493   3.207   5.463   5.157  0.4820 -0.1227 -0.7404
17281THY    HA322494   3.133   5.472   5.078 -2.7829  2.7271 -0.6400
17281THY    CA422495   3.337   5.515   5.152  0.3540 -0.1877  0.4963
17281THY    HA422496   3.365   5.572   5.064 -1.7499 -0.4759  1.1921
17281THY    CA522497   3.428   5.488   5.258  0.3198 -0.4585  0.4070
17281THY    CM122498   3.556   5.560   5.260 -0.2425  0.6488 -0.2517
17281THY    HM122499   3.634   5.499   5.307  0.0680  2.2474  1.2665
17281THY    HM222500   3.545   5.653   5.318 -0.3975  1.0556 -0.5226
17281THY    HM322501   3.593   5.609   5.169  0.7423  0.9812 -0.3499
17281THY    CA622502   3.385   5.409   5.366 -0.4784  0.8910 -0.2545
17281THY    HA622503   3.462   5.401   5.443  0.9441 -0.2581  1.4083
17282THY      O22504   4.419   4.458   3.644  0.7704  0.2483 -0.1353
17282THY     HO22505   4.376   4.373   3.627 -2.0830  1.3162  0.9706
17282THY    CA122506   4.538   4.459   3.585  0.4739 -0.4967  0.2753
17282THY    CA222507   4.586   4.567   3.504  0.2479 -0.0728 -0.2555
17282THY    CP122508   4.498   4.683   3.473  0.0170  0.0246 -0.7148
17282THY    HP122509   4.405   4.701   3.528 -1.1888 -2.5543  1.8071
17282THY    CP222510   4.447   4.682   3.325 -0.9007  0.6602 -0.1907
17282THY    HP222511   4.390   4.588   3.313 -0.1191  1.3708 -0.7722
17282THY    HP322512   4.529   4.669   3.254 -1.0675  0.0054  2.0758
17282THY    HP422513   4.390   4.769   3.291  3.3531  0.4653  2.8125
17282THY    CP322514   4.574   4.815   3.511  0.2958  0.5272  0.2537
17282THY    HP522515   4.667   4.808   3.454  1.2961  2.2445 -1.3929
17282THY    HP622516   4.605   4.816   3.616 -1.5463  1.1192  0.2379
17282THY    HP722517   4.497   4.887   3.480  0.1632 -0.4280 -0.2856
17282THY    CA322518   4.705   4.543   3.421 -0.0555 -0.0937 -0.0944
17282THY    HA322519   4.740   4.609   3.342 -0.1926  0.5239  0.7440
17282THY    CA422520   4.779   4.424   3.444  0.7834  0.0793 -0.6253
17282THY    HA422521   4.861   4.399   3.377 -0.0081 -1.0747 -0.1998
17282THY    CA522522   4.742   4.340   3.548 -0.0737 -0.0069  0.6088
17282THY    CM122523   4.819   4.214   3.572 -0.0271  0.0881 -0.3048
17282THY    HM122524   4.918   4.230   3.527 -0.3778  0.0594  2.2845
17282THY    HM222525   4.772   4.127   3.526 -2.1502  0.5457  0.5310
17282THY    HM322526   4.817   4.180   3.676  0.4619 -1.0853 -4.5073
17282THY    CA622527   4.622   4.347   3.615  0.7161 -0.1932 -0.2039
17282THY    HA622528   4.603   4.274   3.693  1.4988 -0.5775 -0.8353
17283THY      O22529   1.863   0.481   6.284 -0.0087  0.0220 -0.5180
17283THY     HO22530   1.801   0.490   6.210  1.2206 -1.0114 -0.1628
17283THY    CA122531   1.967   0.418   6.228  0.1357  1.0253  0.6559
17283THY    CA222532   2.077   0.381   6.303 -0.9609  0.2502  0.8438
17283THY    CP122533   2.082   0.413   6.457  0.3968  0.1091 -0.0140
17283THY    HP122534   1.983   0.388   6.499  0.1382 -0.0720  0.6767
17283THY    CP222535   2.101   0.561   6.483  0.0793  0.3976 -0.0725
17283THY    HP222536   2.194   0.601   6.442 -0.2947  0.3724  0.7849
17283THY    HP322537   2.091   0.576   6.591  1.8814  0.6865 -0.7779
17283THY    HP422538   2.021   0.614   6.430 -0.6002  2.5038  1.0918
17283THY    CP322539   2.189   0.340   6.540  0.4640 -0.6429  0.2934
17283THY    HP522540   2.290   0.354   6.499  0.1825 -1.2922  0.4400
17283THY    HP622541   2.162   0.234   6.527  0.0151 -1.9932  0.5623
17283THY    HP722542   2.183   0.368   6.646 -0.7609 -0.4235 -0.6935
17283THY    CA322543   2.179   0.304   6.245 -0.5691 -0.6853  0.5359
17283THY    HA322544   2.259   0.269   6.310 -1.3706 -0.8536 -1.7700
17283THY    CA422545   2.184   0.276   6.108  0.4559  0.1049  0.5124
17283THY    HA422546   2.266   0.212   6.076  0.0611  1.4134 -0.7209
17283THY    CA522547   2.074   0.317   6.032  0.3513 -0.4443 -0.0393
17283THY    CM122548   2.077   0.294   5.880  0.2727 -0.0587 -0.4954
17283THY    HM122549   2.180   0.272   5.850  0.3828  1.3290 -2.0744
17283THY    HM222550   2.053   0.387   5.827  0.5951 -0.3715 -0.5868
17283THY    HM322551   2.012   0.211   5.848  0.3228 -1.2912 -0.0797
17283THY    CA622552   1.963   0.391   6.092  0.1037  0.6467  0.3027
17283THY    HA622553   1.879   0.415   6.028  1.2911 -0.7288  0.9542
17284THY      O22554   8.783   8.235   6.759 -0.3469  0.1321 -0.1641
17284THY     HO22555   8.753   8.195   6.842 -3.0486 -0.7757 -0.1753
17284THY    CA122556   8.788   8.134   6.667 -0.0446  0.0747 -0.4124
17284THY    CA222557   8.911   8.108   6.604  0.2250 -0.4746 -0.1695
17284THY    CP122558   9.041   8.181   6.646  1.1610  0.4405 -0.5174
17284THY    HP122559   9.015   8.263   6.713  2.6408 -0.8467  1.0754
17284THY    CP222560   9.116   8.248   6.524 -0.7526 -0.3351 -0.6857
17284THY    HP222561   9.215   8.284   6.554  0.3771 -1.6353 -2.5560
17284THY    HP322562   9.060   8.329   6.474 -0.3248  1.3028  0.6849
17284THY    HP422563   9.145   8.171   6.452  1.1750  1.4208 -1.7025
17284THY    CP322564   9.147   8.096   6.717 -0.2214  0.6554  0.0542
17284THY    HP522565   9.202   8.039   6.641 -1.2931 -1.6850  1.9664
17284THY    HP622566   9.109   8.024   6.790  3.9392  1.1339 -1.9912
17284THY    HP722567   9.227   8.150   6.770  0.2280  0.4029 -0.3485
17284THY    CA322568   8.911   8.018   6.498 -0.0007 -0.7787  0.1222
17284THY    HA322569   9.005   7.984   6.455 -1.0845 -1.7144 -1.9036
17284THY    CA422570   8.795   7.957   6.454 -0.4801  0.1092  0.4094
17284THY    HA422571   8.798   7.884   6.373 -0.6704 -0.1699  0.7043
17284THY    CA522572   8.671   7.990   6.512 -0.3693 -0.2079 -0.0876
17284THY    CM122573   8.536   7.929   6.470 -0.1492 -0.0253  0.6312
17284THY    HM122574   8.469   8.015   6.460  1.9460  1.1304  2.5113
17284THY    HM222575   8.486   7.855   6.534  0.2918 -1.5236 -1.0545
17284THY    HM322576   8.536   7.871   6.377  1.2585  0.1729  0.2891
17284THY    CA622577   8.668   8.083   6.618  0.0640  0.0168  0.0733
17284THY    HA622578   8.575   8.102   6.671  0.2481  0.1205  0.7022
17285THY      O22579   5.451   5.632   3.577  0.1658 -0.5859 -0.0551
17285THY     HO22580   5.501   5.574   3.638 -0.0076  0.1231  0.5294
17285THY    CA122581   5.539   5.703   3.512  0.3391  0.7200  0.8532
17285THY    CA222582   5.501   5.785   3.405  0.1197 -0.2999 -1.0269
17285THY    CP122583   5.351   5.797   3.365 -0.4326 -0.2848  0.4029
17285THY    HP122584   5.291   5.766   3.451 -0.2236 -0.5994 -0.9829
17285THY    CP222585   5.320   5.717   3.243 -0.1914 -0.1957  0.0446
17285THY    HP222586   5.363   5.775   3.161 -0.0406  1.2296  2.0821
17285THY    HP322587   5.211   5.704   3.232  0.2888 -3.3643 -2.4123
17285THY    HP422588   5.363   5.617   3.242 -0.9062 -0.0273 -0.2749
17285THY    CP322589   5.320   5.945   3.342  0.1886 -0.2432  0.2108
17285THY    HP522590   5.346   6.000   3.433 -1.2122  1.1227 -1.2745
17285THY    HP622591   5.210   5.944   3.334  0.2513 -1.4411  0.9808
17285THY    HP722592   5.357   5.994   3.251 -1.3450 -0.9532  0.1218
17285THY    CA322593   5.598   5.854   3.339 -0.5380  0.3338 -0.3642
17285THY    HA322594   5.579   5.928   3.262 -0.3335  0.4510 -0.1898
17285THY    CA422595   5.734   5.837   3.369 -0.1560  0.2931  0.4338
17285THY    HA422596   5.812   5.877   3.305  0.3074  1.1755  0.9954
17285THY    CA522597   5.774   5.747   3.478  0.2235  0.2834 -0.8659
17285THY    CM122598   5.914   5.729   3.517 -0.7767 -0.7365 -0.6808
17285THY    HM122599   5.919   5.738   3.626  1.8014 -0.7753 -0.8524
17285THY    HM222600   5.988   5.796   3.471 -0.4556  0.3519 -0.2736
17285THY    HM322601   5.952   5.629   3.491  2.1326  0.9868 -0.1310
17285THY    CA622602   5.669   5.684   3.544  0.5600  0.5791  0.3643
17285THY    HA622603   5.686   5.624   3.634  0.1640 -0.4014 -1.2803
17286THY      O22604   5.086   2.569   6.767 -0.2821 -0.6105  0.1372
17286THY     HO22605   5.009   2.572   6.827  0.8595  0.9009  1.6524
17286THY    CA122606   5.073   2.474   6.676 -0.3160  0.0642  0.1295
17286THY    CA222607   5.186   2.442   6.591 -0.4741 -0.5457 -0.2066
17286THY    CP122608   5.306   2.527   6.586  0.2032 -0.5593 -0.2496
17286THY    HP122609   5.296   2.603   6.664 -1.5677 -0.3495 -0.6395
17286THY    CP222610   5.330   2.594   6.451 -0.3281  0.1237  0.0112
17286THY    HP222611   5.317   2.519   6.373 -1.0195  0.4307 -0.1896
17286THY    HP322612   5.431   2.636   6.441 -0.7460 -3.8977  0.4023
17286THY    HP422613   5.260   2.676   6.429  0.0062 -0.9075  0.0339
17286THY    CP322614   5.432   2.446   6.631 -0.0433 -0.0496 -0.2549
17286THY    HP522615   5.418   2.391   6.724  1.7476 -1.4490 -3.3990
17286THY    HP622616   5.518   2.514   6.632  0.9896 -0.9900 -1.4750
17286THY    HP722617   5.452   2.372   6.552 -0.8367 -0.5145  0.0212
17286THY    CA322618   5.170   2.339   6.502 -0.3607  0.0239 -0.2704
17286THY    HA322619   5.251   2.306   6.437 -0.8526 -1.3792  1.2159
17286THY    CA422620   5.049   2.264   6.492  0.0637 -0.1803 -0.2263
17286THY    HA422621   5.047   2.177   6.427  1.3725  1.0782 -1.2350
17286THY    CA522622   4.941   2.300   6.568 -0.0444 -0.3853 -0.0193
17286THY    CM122623   4.818   2.209   6.568  0.1522 -0.1231 -0.6699
17286THY    HM122624   4.810   2.154   6.474 -2.7960 -0.4789  0.2077
17286THY    HM222625   4.724   2.265   6.573 -0.8058 -1.1562 -2.1063
17286THY    HM322626   4.814   2.144   6.657  0.0778 -0.2393 -0.8239
17286THY    CA622627   4.953   2.399   6.660  0.2458  0.3827 -0.0077
17286THY    HA622628   4.864   2.420   6.718 -1.6809 -2.4948  0.2970
17287THY      O22629   4.951   0.560   7.253  0.0715  0.1408 -0.7447
17287THY     HO22630   4.949   0.563   7.351  1.6973  0.1794  0.1131
17287THY    CA122631   5.059   0.487   7.240 -0.2732 -0.1673 -0.0959
17287THY    CA222632   5.084   0.418   7.118  0.1868  0.5397  0.2826
17287THY    CP122633   4.993   0.442   6.998 -0.0034  0.3968  0.8431
17287THY    HP122634   4.927   0.530   7.001 -0.8107 -1.4028  0.3442
17287THY    CP222635   4.909   0.321   6.969  0.6292 -0.2472 -0.2601
17287THY    HP222636   4.963   0.227   6.954  0.7326  1.8629 -0.5742
17287THY    HP322637   4.857   0.335   6.873 -0.2739  0.0148 -1.6256
17287THY    HP422638   4.827   0.293   7.036 -0.3807  0.0557  2.9783
17287THY    CP322639   5.075   0.483   6.873  0.1174 -0.3052  0.3549
17287THY    HP522640   5.124   0.580   6.888 -2.0527  0.1884  1.4345
17287THY    HP622641   5.010   0.493   6.785 -0.3317  0.1283  1.4147
17287THY    HP722642   5.153   0.412   6.846  0.6209 -0.3272  0.9052
17287THY    CA322643   5.208   0.345   7.111 -0.2161  0.0357 -0.3594
17287THY    HA322644   5.240   0.296   7.019 -1.5447 -0.5031 -0.2417
17287THY    CA422645   5.303   0.362   7.209  0.5520  0.3500 -0.4406
17287THY    HA422646   5.403   0.320   7.211  1.0749  1.2640  0.7917
17287THY    CA522647   5.258   0.413   7.332 -0.5017  0.0386 -0.4490
17287THY    CM122648   5.354   0.423   7.437 -0.1262 -0.6497  0.5380
17287THY    HM122649   5.378   0.524   7.473 -0.2333  0.1703  0.2833
17287THY    HM222650   5.442   0.361   7.420 -0.4737  0.0699 -0.1783
17287THY    HM322651   5.309   0.373   7.524  1.3045  0.6930  1.4761
17287THY    CA622652   5.137   0.482   7.350  0.8510 -0.6346 -0.0868
17287THY    HA622653   5.122   0.539   7.441 -2.7881 -1.3183  0.3146
17288THY      O22654   1.071   6.728   5.750  0.1137  0.3591 -0.6387
17288THY     HO22655   1.162   6.758   5.734  1.6379  5.2224 -1.7198
17288THY    CA122656   1.021   6.813   5.843  0.4857 -0.6839 -0.0080
17288THY    CA222657   0.887   6.809   5.892  0.4995  0.1864  0.4316
17288THY    CP122658   0.799   6.696   5.846  0.4200  0.1682 -0.0532
17288THY    HP122659   0.860   6.607   5.829  0.8705 -0.7019  0.4184
17288THY    CP222660   0.734   6.736   5.709  0.3660 -0.0402 -0.4259
17288THY    HP222661   0.807   6.760   5.630 -0.6582 -1.6172 -2.2271
17288THY    HP322662   0.673   6.827   5.713 -1.0326  1.3803 -1.3878
17288THY    HP422663   0.682   6.654   5.659  0.7633 -1.6013  0.2314
17288THY    CP322664   0.676   6.662   5.936 -0.2739 -0.1648 -0.3957
17288THY    HP522665   0.640   6.562   5.908  3.0857  2.0218 -2.4246
17288THY    HP622666   0.596   6.736   5.934 -0.7209 -1.3510 -0.8782
17288THY    HP722667   0.713   6.657   6.039 -0.4145 -0.1720 -3.7649
17288THY    CA322668   0.842   6.906   5.986  0.0758  0.0524  1.1031
17288THY    HA322669   0.744   6.901   6.031  0.7507  1.5575  0.6803
17288THY    CA422670   0.934   7.009   6.018  0.1173 -0.8297 -0.0893
17288THY    HA422671   0.896   7.087   6.083  0.2516 -1.7209  0.7417
17288THY    CA522672   1.066   7.017   5.964 -0.4377 -0.1246  0.3614
17288THY    CM122673   1.160   7.135   5.986  0.1462 -0.0785 -0.0858
17288THY    HM122674   1.262   7.103   5.964  0.8780 -0.8785  2.5154
17288THY    HM222675   1.169   7.161   6.092  1.0719  0.6219 -2.9172
17288THY    HM322676   1.141   7.212   5.910 -0.7610 -1.7760 -1.9118
17288THY    CA622677   1.102   6.916   5.876 -0.1205  0.1808 -0.1235
17288THY    HA622678   1.201   6.933   5.833  0.1600  1.1063  0.7097
17289THY      O22679   0.692   3.406   2.988  0.1838  0.0619 -0.1396
17289THY     HO22680   0.733   3.418   2.900 -1.4406 -0.3804  4.6822
17289THY    CA122681   0.740   3.516   3.060 -0.6774  0.3336 -0.0102
17289THY    CA222682   0.658   3.597   3.138  0.0419  0.6181 -0.9697
17289THY    CP122683   0.512   3.562   3.158 -0.1053 -0.4769 -0.2385
17289THY    HP122684   0.491   3.455   3.145  0.9386 -1.2324 -0.3604
17289THY    CP222685   0.434   3.645   3.054 -0.1362 -0.6005 -0.5520
17289THY    HP222686   0.417   3.747   3.089  0.5683 -3.3959  0.6242
17289THY    HP322687   0.339   3.594   3.031  0.2444 -0.1799 -1.4657
17289THY    HP422688   0.489   3.661   2.961  2.9004  1.5360  3.1579
17289THY    CP322689   0.455   3.596   3.298  0.3896 -0.3372  0.5780
17289THY    HP522690   0.428   3.702   3.307 -1.3600 -1.3878  0.2632
17289THY    HP622691   0.535   3.565   3.366 -0.4955  1.4281  1.9746
17289THY    HP722692   0.364   3.542   3.323  0.4760 -0.0979  0.5431
17289THY    CA322693   0.711   3.713   3.198 -0.3026 -0.1816 -0.7575
17289THY    HA322694   0.639   3.783   3.237 -3.7641 -1.9099 -3.0826
17289THY    CA422695   0.848   3.737   3.193  0.1024  0.0761  0.2412
17289THY    HA422696   0.889   3.828   3.237  0.1743  1.2671 -0.3403
17289THY    CA522697   0.931   3.648   3.125  0.0116  0.1665 -0.0167
17289THY    CM122698   1.077   3.680   3.097 -0.7627 -0.4166  0.3449
17289THY    HM122699   1.084   3.702   2.990 -1.3116 -0.5668 -0.1721
17289THY    HM222700   1.133   3.588   3.114  1.4857 -3.3221  1.0457
17289THY    HM322701   1.112   3.754   3.170 -0.9308  0.0937 -0.0714
17289THY    CA622702   0.882   3.539   3.054 -0.3845  0.6356 -0.9037
17289THY    HA622703   0.951   3.472   3.006  1.0484  0.5991  0.5399
17290THY      O22704   6.256   3.870   4.721 -0.2217  0.4972 -0.5511
17290THY     HO22705   6.283   3.962   4.736  1.1563  1.7398 -1.1139
17290THY    CA122706   6.324   3.816   4.818  0.5647  0.3859 -0.9908
17290THY    CA222707   6.305   3.685   4.870 -0.4958  0.8087 -0.2865
17290THY    CP122708   6.196   3.589   4.800  0.7286 -0.4491  0.4455
17290THY    HP122709   6.180   3.589   4.692  0.3621 -0.4177 -0.8099
17290THY    CP222710   6.062   3.614   4.866  0.1980 -0.0509  0.1993
17290THY    HP222711   5.997   3.530   4.839 -1.4718 -0.5609  1.6016
17290THY    HP322712   6.025   3.717   4.854  0.1687  0.1408  0.2119
17290THY    HP422713   6.078   3.609   4.975 -0.6072  0.0229 -1.6025
17290THY    CP322714   6.235   3.444   4.830  0.2564  0.6141  0.2331
17290THY    HP522715   6.164   3.369   4.795 -0.4251 -0.7409  1.4523
17290THY    HP622716   6.256   3.430   4.937  0.9582  0.1169 -3.3898
17290THY    HP722717   6.325   3.423   4.772 -0.2094 -1.2364  2.8426
17290THY    CA322718   6.381   3.652   4.986  1.0441  0.0878  0.1881
17290THY    HA322719   6.370   3.559   5.042 -2.8698 -1.0596 -0.1987
17290THY    CA422720   6.470   3.746   5.039 -0.6533 -0.2239  0.3537
17290THY    HA422721   6.524   3.712   5.127  0.7304 -1.3138 -0.3598
17290THY    CA522722   6.490   3.874   4.987  0.0885  0.0469 -0.3594
17290THY    CM122723   6.584   3.974   5.041  0.2671  0.0554 -0.0662
17290THY    HM122724   6.537   4.049   5.106  1.4951  2.6351 -1.4023
17290THY    HM222725   6.634   4.037   4.966  1.7785  0.5286 -0.6638
17290THY    HM322726   6.660   3.925   5.102 -2.0410  2.6696 -0.6307
17290THY    CA622727   6.413   3.910   4.870 -0.7580 -0.4216 -0.2044
17290THY    HA622728   6.431   4.009   4.828 -0.5672  1.9413  0.8182
17291THY      O22729   1.717   7.850   6.902 -0.8165 -0.1367 -0.3237
17291THY     HO22730   1.739   7.888   6.989 -0.1771  0.3983 -1.8276
17291THY    CA122731   1.804   7.898   6.810  0.6319  0.4626  0.2742
17291THY    CA222732   1.840   7.833   6.696 -0.0366  0.9089  0.4223
17291THY    CP122733   1.787   7.696   6.652 -0.4490 -0.1704 -0.6390
17291THY    HP122734   1.716   7.668   6.731 -0.6079 -0.0807  0.0005
17291THY    CP222735   1.899   7.594   6.649  1.4106  0.8594 -0.7529
17291THY    HP222736   1.932   7.581   6.753 -0.5962  1.6120 -0.1907
17291THY    HP322737   1.980   7.617   6.578  0.0805 -0.1143  1.2369
17291THY    HP422738   1.859   7.499   6.610  0.8514  0.3703 -0.3228
17291THY    CP322739   1.714   7.690   6.511 -0.0627 -0.1864  0.6573
17291THY    HP522740   1.655   7.782   6.506 -1.1206  0.8388  0.0724
17291THY    HP622741   1.650   7.604   6.486  0.5955  1.0642 -0.2390
17291THY    HP722742   1.775   7.682   6.421 -2.1849 -1.5754 -1.3314
17291THY    CA322743   1.933   7.897   6.613 -0.0862  0.0474 -0.2232
17291THY    HA322744   1.963   7.845   6.522 -1.4509  0.1998 -1.3219
17291THY    CA422745   1.987   8.027   6.637 -0.3272 -0.4850  0.3782
17291THY    HA422746   2.052   8.069   6.562  0.6656 -0.5793 -1.2320
17291THY    CA522747   1.938   8.092   6.745 -0.3368  1.0669  0.6214
17291THY    CM122748   1.981   8.225   6.784 -0.0971  0.7197 -0.3214
17291THY    HM122749   2.040   8.226   6.876 -1.7387  1.9623 -3.6425
17291THY    HM222750   1.906   8.305   6.789 -1.2993 -1.3612 -1.2380
17291THY    HM322751   2.043   8.258   6.700  1.6879  1.1481 -2.3832
17291THY    CA622752   1.856   8.024   6.830 -0.6022  0.1560  0.1894
17291THY    HA622753   1.833   8.076   6.922  0.8897  0.5172  0.2363
17292THY      O22754   5.258   6.423   2.433 -0.8435  0.0329  0.6203
17292THY     HO22755   5.336   6.464   2.394 -0.7570 -0.0151  0.4126
17292THY    CA122756   5.220   6.328   2.339 -0.0444 -0.1698  0.9701
17292THY    CA222757   5.116   6.231   2.364 -0.3248 -0.0190 -0.9496
17292THY    CP122758   5.044   6.246   2.500 -0.7423 -1.0827  0.3629
17292THY    HP122759   5.089   6.313   2.573 -0.1910 -2.1343  1.1796
17292THY    CP222760   5.031   6.107   2.576 -0.0704  0.7909 -0.8086
17292THY    HP222761   4.971   6.123   2.666  2.0762  1.7282  3.7478
17292THY    HP322762   5.126   6.076   2.621 -0.6688  1.3506 -1.8834
17292THY    HP422763   4.992   6.024   2.515 -0.4625  0.7037 -0.5641
17292THY    CP322764   4.903   6.301   2.461 -0.5501  0.0659  0.0760
17292THY    HP522765   4.916   6.404   2.423  2.2101  1.4988  0.3524
17292THY    HP622766   4.841   6.298   2.551  0.0514  0.5091  0.6423
17292THY    HP722767   4.865   6.235   2.382 -0.0136  1.7501 -2.3602
17292THY    CA322768   5.084   6.138   2.265 -0.7468  0.5656 -0.1082
17292THY    HA322769   5.001   6.069   2.270 -1.6465 -2.2311  0.6342
17292THY    CA422770   5.151   6.152   2.145  0.5130 -0.0706 -0.2657
17292THY    HA422771   5.125   6.078   2.069  2.2058  0.1433 -1.1471
17292THY    CA522772   5.264   6.237   2.125 -0.7679 -0.2802 -0.0916
17292THY    CM122773   5.345   6.232   1.998 -0.5274 -0.6853  0.2259
17292THY    HM122774   5.310   6.300   1.920  0.6776  0.7298  2.6291
17292THY    HM222775   5.337   6.130   1.961 -1.8561 -0.6438  0.2881
17292THY    HM322776   5.450   6.252   2.021  0.1284 -1.6453 -1.8606
17292THY    CA622777   5.298   6.327   2.223  0.3790  0.3072 -0.3832
17292THY    HA622778   5.381   6.395   2.209 -0.5464 -0.8877  0.5537
17293THY      O22779   8.725   4.385   3.615 -0.3084 -0.6319  0.3423
17293THY     HO22780   8.733   4.323   3.690 -0.9215 -0.1653  0.8211
17293THY    CA122781   8.839   4.376   3.543  0.1190  0.0112 -0.3076
17293THY    CA222782   8.857   4.458   3.435  0.0658 -0.0388 -0.1907
17293THY    CP122783   8.752   4.556   3.386  0.0678 -0.7548 -0.9969
17293THY    HP122784   8.668   4.562   3.457  0.7461  0.0726 -1.1430
17293THY    CP222785   8.703   4.513   3.245 -0.0287  0.8223  0.0208
17293THY    HP222786   8.784   4.491   3.175 -0.5928 -0.2316  1.2180
17293THY    HP322787   8.634   4.587   3.203 -1.6456  0.0753 -1.8159
17293THY    HP422788   8.646   4.421   3.263 -3.1715  1.4435  1.9518
17293THY    CP322789   8.807   4.699   3.386  0.4439  0.6767 -0.6287
17293THY    HP522790   8.863   4.724   3.295 -0.1967  0.6948  0.9920
17293THY    HP622791   8.874   4.712   3.471  1.5736 -0.5389  2.2005
17293THY    HP722792   8.733   4.780   3.393  3.6132 -0.9247  2.6765
17293THY    CA322793   8.982   4.450   3.364 -0.7326  0.2334  0.1140
17293THY    HA322794   9.000   4.517   3.281 -0.1599  0.1189 -0.1757
17293THY    CA422795   9.080   4.356   3.406  0.5378  0.9142 -0.5734
17293THY    HA422796   9.167   4.346   3.342  2.4489  2.9731  1.6042
17293THY    CA522797   9.059   4.272   3.516  0.3343 -0.8563 -0.2762
17293THY    CM122798   9.160   4.162   3.558 -0.0698 -0.3837  0.6500
17293THY    HM122799   9.245   4.171   3.489 -0.0546 -0.3284  0.9269
17293THY    HM222800   9.116   4.063   3.539  0.3045 -1.8316  0.7378
17293THY    HM322801   9.190   4.156   3.663  1.0025 -0.7697 -2.0742
17293THY    CA622802   8.939   4.290   3.583  0.6038  0.3466  0.0569
17293THY    HA622803   8.914   4.226   3.667  0.5063  0.4757  0.2613
17294THY      O22804   6.722   2.322   6.127 -0.1050  0.4836 -0.2594
17294THY     HO22805   6.787   2.253   6.107 -0.9654 -1.1427 -0.6387
17294THY    CA122806   6.612   2.253   6.101 -0.7936 -0.1999  0.1313
17294THY    CA222807   6.492   2.301   6.046  0.2162  0.1574  0.2615
17294THY    CP122808   6.476   2.449   6.013 -0.1672  0.0103 -1.0466
17294THY    HP122809   6.574   2.496   5.994 -1.9185 -0.0811  2.9456
17294THY    CP222810   6.407   2.517   6.140 -0.3557  0.9337  0.5866
17294THY    HP222811   6.403   2.626   6.127  1.8691 -1.4472  0.4813
17294THY    HP322812   6.453   2.489   6.235 -0.2622  0.7728  0.1901
17294THY    HP422813   6.300   2.495   6.139 -0.5601  0.3665  1.5774
17294THY    CP322814   6.402   2.481   5.877  0.2679 -0.4228  0.2517
17294THY    HP522815   6.428   2.581   5.839  2.8635 -1.1425 -0.6044
17294THY    HP622816   6.294   2.463   5.868 -0.0197  0.9501  1.1339
17294THY    HP722817   6.444   2.413   5.802  0.3706 -0.1575  0.0209
17294THY    CA322818   6.388   2.209   6.024 -0.0383  0.6834 -0.3876
17294THY    HA322819   6.293   2.242   5.983  0.2848  1.2793  1.4124
17294THY    CA422820   6.407   2.072   6.054 -0.1898  0.6330 -0.3616
17294THY    HA422821   6.325   2.008   6.021 -1.7087  0.3467  1.6199
17294THY    CA522822   6.524   2.029   6.112 -0.3436  1.0643  1.1567
17294THY    CM122823   6.532   1.878   6.138  0.2944 -0.2478 -0.1062
17294THY    HM122824   6.444   1.825   6.101  1.4706 -0.1740 -2.1847
17294THY    HM222825   6.539   1.852   6.244 -1.2946 -0.5641 -2.0425
17294THY    HM322826   6.619   1.825   6.098  1.2010  1.9302 -0.3697
17294THY    CA622827   6.628   2.117   6.136 -0.9754  0.0448  0.0115
17294THY    HA622828   6.718   2.077   6.181 -1.1420 -0.4207 -0.8963
17295THY      O22829   0.841   8.274   5.914  0.0547 -0.2622  0.9605
17295THY     HO22830   0.750   8.245   5.931  0.9889  1.0086 -1.5201
17295THY    CA122831   0.908   8.281   6.032  0.1438 -0.2013  0.1074
17295THY    CA222832   1.027   8.359   6.036 -0.2293  0.3423  0.0227
17295THY    CP122833   1.082   8.432   5.917 -0.4642 -0.3640 -0.8570
17295THY    HP122834   1.018   8.422   5.828  2.7192 -3.0536  0.5316
17295THY    CP222835   1.234   8.393   5.891 -0.2959 -0.1739 -0.4549
17295THY    HP222836   1.255   8.286   5.884 -0.5500 -4.9975 -0.3839
17295THY    HP322837   1.300   8.441   5.965  1.2275 -2.3455  1.0031
17295THY    HP422838   1.253   8.438   5.793 -1.4407 -0.4463 -0.5347
17295THY    CP322839   1.078   8.582   5.942  0.1176  0.3292  0.1879
17295THY    HP522840   1.089   8.628   5.843 -2.4366 -2.1458 -3.9047
17295THY    HP622841   1.159   8.614   6.009  0.6106 -0.1743  0.0031
17295THY    HP722842   0.983   8.623   5.980  0.1869  0.4587  0.2333
17295THY    CA322843   1.092   8.362   6.165  0.4912  0.2014 -0.3572
17295THY    HA322844   1.185   8.417   6.182 -1.3391  2.9769  2.1966
17295THY    CA422845   1.040   8.291   6.271 -0.0192  0.0965  0.2305
17295THY    HA422846   1.086   8.283   6.369  0.3654 -0.1711 -1.0086
17295THY    CA522847   0.923   8.214   6.258  0.7315  0.1245 -0.6232
17295THY    CM122848   0.882   8.109   6.357  0.0071 -0.4101 -0.3419
17295THY    HM122849   0.782   8.140   6.390  0.8114  1.4545  0.4253
17295THY    HM222850   0.941   8.131   6.447 -0.8319  0.1960 -0.5346
17295THY    HM322851   0.893   8.008   6.317  0.4023 -0.4849 -0.2725
17295THY    CA622852   0.850   8.221   6.139  0.4833 -0.6626 -0.3785
17295THY    HA622853   0.759   8.163   6.128 -0.4650 -1.4877  1.1955
17296THY      O22854   6.890   2.202   7.039 -0.1036 -1.0213  0.0754
17296THY     HO22855   6.905   2.267   7.110  1.9087  0.0074 -1.3932
17296THY    CA122856   6.755   2.197   7.024 -0.5628  0.5587  0.5655
17296THY    CA222857   6.683   2.080   7.048  0.2384 -0.5630  0.7458
17296THY    CP122858   6.755   1.944   7.094  0.5820  0.8657 -0.7761
17296THY    HP122859   6.857   1.980   7.115  0.1589  0.0446  0.9636
17296THY    CP222860   6.741   1.838   6.973  0.6774 -0.0826 -0.1809
17296THY    HP222861   6.745   1.887   6.875 -1.6077  0.6639  1.6465
17296THY    HP322862   6.648   1.782   6.986  0.2347 -2.8066 -0.1841
17296THY    HP422863   6.822   1.763   6.977 -0.2730  1.7387 -1.1804
17296THY    CP322864   6.720   1.894   7.235 -0.1675  0.4240  0.3193
17296THY    HP522865   6.613   1.889   7.258  0.1527  2.4950  1.5066
17296THY    HP622866   6.747   1.974   7.306 -1.6830  1.2436  0.1537
17296THY    HP722867   6.764   1.804   7.280  1.0275  1.2473  1.2817
17296THY    CA322868   6.544   2.085   7.023  0.6469  0.3819  0.2264
17296THY    HA322869   6.492   1.991   7.040  0.2996 -0.1532  0.3229
17296THY    CA422870   6.485   2.208   6.998 -0.8008 -0.1103 -0.3503
17296THY    HA422871   6.377   2.213   7.000 -0.7493  0.2120  0.9939
17296THY    CA522872   6.558   2.324   6.986  0.6457  0.2069  0.1314
17296THY    CM122873   6.497   2.463   6.960  0.5834 -0.0096 -0.1894
17296THY    HM122874   6.387   2.458   6.956  0.3093 -2.7999  3.5752
17296THY    HM222875   6.523   2.484   6.855 -0.0760 -1.0768 -3.8569
17296THY    HM322876   6.529   2.547   7.022 -1.5244  0.8163  0.0791
17296THY    CA622877   6.696   2.322   6.990  0.4117 -0.3804  0.2577
17296THY    HA622878   6.753   2.414   6.983  0.7910  1.0134  0.1469
17297THY      O22879   3.311   2.435   1.687 -0.3039 -0.1885  0.5025
17297THY     HO22880   3.330   2.522   1.649  1.0301  0.1749  0.3934
17297THY    CA122881   3.379   2.428   1.803  0.5305 -0.1617 -0.5309
17297THY    CA222882   3.378   2.312   1.884 -0.1668 -0.4489 -0.3775
17297THY    CP122883   3.315   2.179   1.837 -0.0915  0.4643  0.6121
17297THY    HP122884   3.233   2.207   1.771  0.2849  0.5713  2.0099
17297THY    CP222885   3.267   2.094   1.955 -0.8760 -0.2851 -0.3164
17297THY    HP222886   3.184   2.028   1.923 -0.8068 -1.8313  0.2957
17297THY    HP322887   3.214   2.151   2.032  0.0569  0.8276 -0.9285
17297THY    HP422888   3.347   2.034   2.000  0.6442 -2.5986 -0.1211
17297THY    CP322889   3.419   2.088   1.760 -0.0248 -0.2966 -0.3255
17297THY    HP522890   3.492   2.048   1.832 -0.0604  0.1120  0.3377
17297THY    HP622891   3.468   2.139   1.676 -0.6005 -0.1853  0.4277
17297THY    HP722892   3.376   1.994   1.725  0.1701 -0.8869 -0.1988
17297THY    CA322893   3.439   2.326   2.014 -0.8575  0.1949  0.0663
17297THY    HA322894   3.454   2.246   2.086 -0.1395 -1.0418 -0.9546
17297THY    CA422895   3.503   2.447   2.046 -0.0418  0.4379 -0.1108
17297THY    HA422896   3.547   2.456   2.145 -1.0408  1.0943 -1.9765
17297THY    CA522897   3.501   2.557   1.961  0.9363 -0.7592  0.9588
17297THY    CM122898   3.549   2.683   2.011 -0.5138 -0.5545 -0.3514
17297THY    HM122899   3.588   2.741   1.926 -2.6433 -1.4882 -0.2133
17297THY    HM222900   3.628   2.670   2.087 -1.3341  0.3281 -0.2774
17297THY    HM322901   3.458   2.733   2.045 -1.4649 -4.2229  0.6617
17297THY    CA622902   3.436   2.546   1.840  0.2829  0.5896  0.3860
17297THY    HA622903   3.441   2.635   1.779  0.9145  1.6817  1.1244
17298THY      O22904   2.525   3.650   4.845 -0.5741  0.4388 -0.4037
17298THY     HO22905   2.494   3.733   4.805  0.7310 -0.5694 -0.3657
17298THY    CA122906   2.422   3.604   4.921  0.3725 -0.1633  0.1210
17298THY    CA222907   2.436   3.544   5.051 -0.0273  0.3757  0.1370
17298THY    CP122908   2.570   3.535   5.119 -0.1939  0.0189 -0.0109
17298THY    HP122909   2.645   3.547   5.041  0.9229  0.8924 -1.0672
17298THY    CP222910   2.592   3.397   5.185 -0.0090  0.5535  0.5595
17298THY    HP222911   2.596   3.320   5.106  1.5178 -1.0278  2.1573
17298THY    HP322912   2.512   3.383   5.259 -0.2138  1.0359  3.5177
17298THY    HP422913   2.687   3.397   5.239 -0.4914  1.4177  0.7895
17298THY    CP322914   2.602   3.641   5.222 -0.4468 -0.0932 -0.1333
17298THY    HP522915   2.617   3.736   5.171  0.5120 -1.9695 -1.2485
17298THY    HP622916   2.683   3.628   5.294 -1.7466  1.5208  0.2622
17298THY    HP722917   2.520   3.661   5.293  0.9236  1.2062  1.0963
17298THY    CA322918   2.318   3.505   5.120  0.0877 -0.5909  0.4956
17298THY    HA322919   2.333   3.481   5.225 -0.8266 -0.8661 -1.5329
17298THY    CA422920   2.191   3.525   5.060  0.1671 -0.6394  0.2330
17298THY    HA422921   2.114   3.502   5.133  1.7148  1.2741  0.7538
17298THY    CA522922   2.179   3.567   4.928  0.8123 -0.2758 -0.7348
17298THY    CM122923   2.053   3.600   4.852  0.4209 -0.7433  0.1425
17298THY    HM122924   2.062   3.633   4.748 -2.8409 -0.9680  0.6891
17298THY    HM222925   1.998   3.675   4.911 -0.0526 -1.3597  0.2859
17298THY    HM322926   2.000   3.505   4.838 -3.0440 -2.3342  2.1041
17298THY    CA622927   2.295   3.623   4.865  0.1380 -0.7815  0.2196
17298THY    HA622928   2.285   3.659   4.763 -2.0133 -0.6246  0.2245
17299THY      O22929   7.321   9.021   4.654  0.5579  0.0632  0.3315
17299THY     HO22930   7.387   9.080   4.694 -1.1444  0.2974  2.1848
17299THY    CA122931   7.378   8.909   4.602 -0.2604 -0.8978 -0.0722
17299THY    CA222932   7.325   8.842   4.489 -0.5736 -0.3526 -0.0486
17299THY    CP122933   7.196   8.896   4.422 -0.3180 -0.5333  0.7009
17299THY    HP122934   7.189   9.003   4.446  1.0595 -0.1079  0.7110
17299THY    CP222935   7.070   8.820   4.480 -0.1066  0.0902 -0.2066
17299THY    HP222936   7.050   8.849   4.583 -1.6128 -0.3466  0.3862
17299THY    HP322937   7.084   8.711   4.474  0.5809 -1.7823 -0.0616
17299THY    HP422938   6.980   8.851   4.426  0.3306  0.7203  2.3428
17299THY    CP322939   7.191   8.892   4.265 -0.0912  0.0562  0.0168
17299THY    HP522940   7.287   8.940   4.244  1.5312  2.0045 -2.1559
17299THY    HP622941   7.101   8.939   4.224 -1.3129  2.0833 -0.3981
17299THY    HP722942   7.208   8.794   4.218  0.1321  0.9626 -0.3984
17299THY    CA322943   7.390   8.717   4.457  0.7677  0.6592 -0.3728
17299THY    HA322944   7.358   8.659   4.372 -0.3504  1.8488 -1.5883
17299THY    CA422945   7.503   8.679   4.528  0.0685 -0.1065 -0.9964
17299THY    HA422946   7.562   8.593   4.499  2.1451  1.6630 -0.2575
17299THY    CA522947   7.554   8.759   4.630  0.1093 -0.6023  0.7822
17299THY    CM122948   7.681   8.708   4.693 -0.5959  0.4127 -0.2772
17299THY    HM122949   7.725   8.620   4.645 -0.0378  0.9753 -0.3142
17299THY    HM222950   7.676   8.689   4.801  0.1708  0.4099 -0.5243
17299THY    HM322951   7.758   8.784   4.673  1.0392  0.6485 -1.8020
17299THY    CA622952   7.494   8.873   4.673 -0.8113 -0.0715 -0.4205
17299THY    HA622953   7.526   8.928   4.761  0.7468 -0.7162 -0.2656
17300THY      O22954   5.770   2.365   5.043 -0.0559 -0.6149 -0.2513
17300THY     HO22955   5.720   2.446   5.062  0.8761 -0.8440  0.3858
17300THY    CA122956   5.891   2.380   5.102  0.2772 -0.2524 -0.7001
17300THY    CA222957   5.986   2.280   5.122  0.0358  0.0001  0.0329
17300THY    CP122958   5.953   2.137   5.079  0.8704 -0.8845  0.7287
17300THY    HP122959   5.865   2.128   5.014 -0.1477  0.7178 -2.8007
17300THY    CP222960   5.929   2.047   5.200  0.0503  0.2125 -0.5964
17300THY    HP222961   5.888   1.951   5.168  0.3201 -1.3995 -0.1908
17300THY    HP322962   5.854   2.087   5.270  0.2777 -0.2530  0.7108
17300THY    HP422963   6.016   2.020   5.261  0.1993 -0.9528 -2.9950
17300THY    CP322964   6.069   2.080   5.000 -0.3373  0.3460 -0.1027
17300THY    HP522965   6.082   2.128   4.902  0.0346  0.6411  0.3944
17300THY    HP622966   6.045   1.975   4.977 -1.3142  2.2905 -0.3425
17300THY    HP722967   6.165   2.075   5.052 -0.1716  0.1795  1.1973
17300THY    CA322968   6.112   2.302   5.188  0.3410  0.0966 -0.2427
17300THY    HA322969   6.177   2.220   5.215  0.9640  1.7069  0.7449
17300THY    CA422970   6.132   2.439   5.220  0.8555 -0.1814 -0.5361
17300THY    HA422971   6.227   2.477   5.256  1.4937  0.6415 -2.7490
17300THY    CA522972   6.035   2.540   5.196  0.2335  0.5858  0.9768
17300THY    CM122973   6.064   2.685   5.239  0.2008 -0.3287 -0.8632
17300THY    HM122974   6.012   2.705   5.333 -1.7327 -1.0006 -2.3485
17300THY    HM222975   6.020   2.744   5.158 -1.6670  0.4264 -1.1447
17300THY    HM322976   6.171   2.696   5.256  0.5271 -0.3319 -3.3418
17300THY    CA622977   5.920   2.509   5.131 -0.2119  0.1666 -0.2512
17300THY    HA622978   5.859   2.597   5.112 -1.3100  3.2918 -0.2133
17301THY      O22979   6.798   6.085   7.449 -0.9009  0.3546  0.3208
17301THY     HO22980   6.834   6.039   7.526 -1.3722  0.3691 -0.0383
17301THY    CA122981   6.913   6.135   7.383 -0.3730 -1.0678 -0.0183
17301THY    CA222982   6.923   6.275   7.338  0.4723 -0.0102  0.8116
17301THY    CP122983   6.799   6.362   7.339  0.1594 -0.0335 -0.4452
17301THY    HP122984   6.713   6.306   7.376  0.6987  1.1317 -0.5323
17301THY    CP222985   6.755   6.419   7.200  0.2986  0.1785  0.0738
17301THY    HP222986   6.659   6.472   7.208  2.0703 -1.5392  3.9184
17301THY    HP322987   6.762   6.339   7.125 -0.8992  0.9771 -0.8193
17301THY    HP422988   6.812   6.504   7.162 -1.8698 -1.9523  0.7104
17301THY    CP322989   6.802   6.471   7.447  0.4749  0.0530  0.3993
17301THY    HP522990   6.703   6.515   7.462  0.1724 -2.4414  0.7047
17301THY    HP622991   6.879   6.545   7.421  1.7648  2.8021  0.1309
17301THY    HP722992   6.834   6.422   7.539  1.8406  0.2080  1.5105
17301THY    CA322993   7.051   6.312   7.283  0.5075  0.3822 -0.1997
17301THY    HA322994   7.067   6.412   7.243  1.3033  1.6566  0.2092
17301THY    CA422995   7.156   6.225   7.280  0.3409  0.7347 -0.8973
17301THY    HA422996   7.247   6.271   7.242 -0.7359  0.6888  1.3620
17301THY    CA522997   7.149   6.101   7.335 -0.3323  0.7796  0.4133
17301THY    CM122998   7.273   6.013   7.344  0.4840  0.4441 -0.1385
17301THY    HM122999   7.362   6.065   7.380  1.2388  1.0587 -1.7726
17301THY    HM223000   7.295   5.973   7.244 -1.4169 -0.3880  0.7678
17301THY    HM323001   7.251   5.926   7.408 -0.0365  1.2189  0.5429
17301THY    CA623002   7.029   6.055   7.391 -0.9744 -0.2805  0.0592
17301THY    HA623003   7.024   5.957   7.437  0.3027 -1.2054 -0.4737
17302THY      O23004   5.704   8.926   6.223  0.3368 -0.0001  0.2011
17302THY     HO23005   5.639   8.924   6.296 -1.4709 -1.5075  0.5707
17302THY    CA123006   5.717   9.058   6.193 -0.0560 -0.0296  0.0582
17302THY    CA223007   5.811   9.105   6.103 -0.4062 -0.6599 -0.1948
17302THY    CP123008   5.895   9.007   6.023  0.4403 -0.1130  0.0520
17302THY    HP123009   5.888   8.910   6.074 -1.8663  0.2601  0.3605
17302THY    CP223010   6.043   9.040   6.015 -0.2599  0.3434  0.3036
17302THY    HP223011   6.090   9.065   6.111  0.0743  0.5107 -0.9217
17302THY    HP323012   6.055   9.130   5.952  2.1270  2.8855  1.9353
17302THY    HP423013   6.099   8.955   5.973  2.1805  0.2247  1.8618
17302THY    CP323014   5.845   8.985   5.886  0.0811 -0.2573  0.6035
17302THY    HP523015   5.736   8.995   5.886 -0.0015  0.9220 -0.1150
17302THY    HP623016   5.873   8.886   5.848 -1.0918  3.1258 -1.1780
17302THY    HP723017   5.875   9.068   5.821 -1.1797  0.1776  1.4373
17302THY    CA323018   5.813   9.238   6.067 -0.1937  1.0810 -0.1933
17302THY    HA323019   5.868   9.273   5.979 -0.3027  1.2256  0.3604
17302THY    CA423020   5.733   9.326   6.133 -0.4172  0.2263 -0.9984
17302THY    HA423021   5.726   9.432   6.112  0.8172  0.5587 -0.8417
17302THY    CA523022   5.656   9.286   6.237  1.0716  0.4073  0.1085
17302THY    CM123023   5.565   9.371   6.314 -0.7816  0.6246  0.4125
17302THY    HM123024   5.501   9.425   6.243  3.3762 -3.2086  0.9113
17302THY    HM223025   5.626   9.450   6.357  0.4936  0.9802 -0.7250
17302THY    HM323026   5.494   9.324   6.383 -1.7780 -0.2779  0.5235
17302THY    CA623027   5.648   9.150   6.264 -0.3341 -0.8484 -0.2840
17302THY    HA623028   5.589   9.121   6.351 -0.4024 -1.0222 -0.6640
17303THY      O23029   5.888   1.479   2.520  0.7698 -0.3315 -0.5084
17303THY     HO23030   5.945   1.419   2.467  1.1665  0.2901 -0.6891
17303THY    CA123031   5.761   1.453   2.494 -0.1379 -0.5422 -0.4638
17303THY    CA223032   5.661   1.517   2.558 -0.9577 -0.0958 -0.1452
17303THY    CP123033   5.701   1.627   2.660  0.2578  0.3332  0.5000
17303THY    HP123034   5.789   1.587   2.711  0.3494 -0.3083 -0.1455
17303THY    CP223035   5.597   1.642   2.774 -0.6610 -0.3521 -0.2159
17303THY    HP223036   5.576   1.542   2.812  0.5774 -1.0557 -0.7606
17303THY    HP323037   5.511   1.694   2.729  0.0428  0.4751  1.7486
17303THY    HP423038   5.631   1.711   2.852 -0.0260 -1.4351  0.7338
17303THY    CP323039   5.723   1.764   2.577 -0.2093  0.2055 -0.2606
17303THY    HP523040   5.754   1.846   2.643  3.0590 -1.1210 -0.2392
17303THY    HP623041   5.628   1.797   2.532 -0.3123  0.4298 -0.2540
17303THY    HP723042   5.809   1.763   2.508  0.4310  0.9983 -0.5986
17303THY    CA323043   5.527   1.493   2.511  0.1958  0.2276  0.1027
17303THY    HA323044   5.445   1.555   2.547 -0.5525  0.9998 -1.2940
17303THY    CA423045   5.508   1.404   2.405 -0.2863 -0.7445 -0.1567
17303THY    HA423046   5.409   1.377   2.372 -0.0595  0.0341 -2.1202
17303THY    CA523047   5.613   1.328   2.359  0.1365 -0.4083  0.5292
17303THY    CM123048   5.598   1.226   2.257  0.4420 -0.1825 -0.6620
17303THY    HM123049   5.641   1.248   2.159 -1.8938 -1.1586 -0.1168
17303THY    HM223050   5.497   1.223   2.214  0.8258 -1.3672  1.1801
17303THY    HM323051   5.626   1.128   2.298  0.1833  1.1119 -0.2220
17303THY    CA623052   5.741   1.348   2.406  0.3659  0.0241 -0.0272
17303THY    HA623053   5.820   1.284   2.367 -0.0433 -1.4042  0.3171
17304THY      O23054   1.359   3.035   3.987  0.2161 -0.1172  0.0998
17304THY     HO23055   1.287   3.095   4.014 -2.0327  1.3943 -2.9822
17304THY    CA123056   1.336   3.002   3.858 -0.0151 -0.4152 -0.0307
17304THY    CA223057   1.331   2.864   3.810 -0.6130  0.5659  0.3782
17304THY    CP123058   1.365   2.752   3.910  0.0819  0.1397  0.1256
17304THY    HP123059   1.385   2.774   4.016  0.1183  0.0894  0.3362
17304THY    CP223060   1.475   2.658   3.864  0.2906 -0.0982  0.5132
17304THY    HP223061   1.536   2.711   3.790 -0.5900  0.1782  1.9601
17304THY    HP323062   1.430   2.573   3.812  0.4934  3.7140 -2.1684
17304THY    HP423063   1.530   2.607   3.944  0.3497 -0.2889  0.2742
17304THY    CP323064   1.237   2.661   3.927 -0.2305 -0.0299 -0.2139
17304THY    HP523065   1.197   2.616   3.836  0.6332 -1.0142  0.9682
17304THY    HP623066   1.163   2.732   3.968  0.2904 -0.9484  0.8783
17304THY    HP723067   1.244   2.576   3.997 -2.8897 -1.5945 -1.8798
17304THY    CA323068   1.304   2.848   3.669  0.4583  0.0666  0.1232
17304THY    HA323069   1.289   2.747   3.631  0.7440 -0.2291  0.1918
17304THY    CA423070   1.289   2.962   3.589  0.2792  0.2778  0.2526
17304THY    HA423071   1.270   2.941   3.484 -1.5998  1.0328 -2.4243
17304THY    CA523072   1.288   3.093   3.640  0.1818  0.1857  0.2722
17304THY    CM123073   1.248   3.206   3.544  0.0309  0.5027  0.1319
17304THY    HM123074   1.140   3.206   3.526  0.1251 -0.2671  2.1080
17304THY    HM223075   1.286   3.186   3.443  0.9288  0.4712  1.8775
17304THY    HM323076   1.272   3.304   3.586  1.7354 -2.0449  0.9027
17304THY    CA623077   1.300   3.108   3.777 -1.0404 -0.5482  0.2356
17304THY    HA623078   1.294   3.206   3.823  0.0209  1.0419 -0.3908
17305THY      O23079   7.311   1.149   2.675 -0.4282  0.4468  0.1678
17305THY     HO23080   7.396   1.126   2.634 -1.3769 -3.5068  2.6751
17305THY    CA123081   7.294   1.077   2.785 -0.4627  0.7129 -0.0732
17305THY    CA223082   7.240   1.126   2.906  0.3537  0.1107  0.7596
17305THY    CP123083   7.177   1.261   2.920  0.0213 -0.6433  0.2725
17305THY    HP123084   7.226   1.325   2.846 -2.2787 -0.8275  1.9250
17305THY    CP223085   7.197   1.332   3.058  0.2317 -0.0439 -0.1313
17305THY    HP223086   7.263   1.270   3.119 -0.8152  0.2731 -0.9434
17305THY    HP323087   7.100   1.339   3.108 -1.0031 -2.1293 -1.4389
17305THY    HP423088   7.237   1.434   3.055  0.9192  0.6430 -0.3763
17305THY    CP323089   7.038   1.262   2.877 -0.1345  0.3090  0.6257
17305THY    HP523090   7.020   1.360   2.831 -1.4759  0.9770  0.7183
17305THY    HP623091   6.964   1.243   2.956 -1.1565 -0.8462 -0.3730
17305THY    HP723092   7.032   1.182   2.803  1.5636 -1.0752  1.7119
17305THY    CA323093   7.211   1.027   3.012 -0.2066 -0.0615 -0.1389
17305THY    HA323094   7.156   1.050   3.103 -0.6454 -0.4628  0.4467
17305THY    CA423095   7.257   0.889   2.996  0.4797 -1.0108 -0.9942
17305THY    HA423096   7.243   0.821   3.080 -0.0263 -1.6758 -1.7250
17305THY    CA523097   7.311   0.852   2.880 -0.2007 -0.0189  0.1538
17305THY    CM123098   7.335   0.705   2.857  0.6357  0.8872  0.0426
17305THY    HM123099   7.303   0.675   2.757  3.2678  0.1606 -0.5600
17305THY    HM223100   7.286   0.640   2.932 -0.5352 -0.9811 -1.3305
17305THY    HM323101   7.443   0.689   2.853  0.6300 -0.4811  0.2519
17305THY    CA623102   7.335   0.944   2.777 -0.0242  0.4029 -0.1869
17305THY    HA623103   7.370   0.901   2.683 -2.8357 -0.9355  0.1957
17306THY      O23104   6.736   0.801   3.471 -0.5413  0.3692  0.5161
17306THY     HO23105   6.669   0.872   3.479 -2.2864  0.5561 -1.0778
17306THY    CA123106   6.851   0.856   3.447  0.5811 -0.9841  0.1369
17306THY    CA223107   6.971   0.783   3.438  0.2051 -0.6715 -0.3764
17306THY    CP123108   6.978   0.629   3.443  0.5704  0.6763 -0.0253
17306THY    HP123109   6.879   0.590   3.469 -1.2448 -1.9703  2.3536
17306THY    CP223110   7.058   0.585   3.557 -0.1519  0.0452 -0.2622
17306THY    HP223111   7.162   0.620   3.549 -0.4559 -0.2982  0.6001
17306THY    HP323112   7.078   0.478   3.547  0.5489  2.7889 -0.4750
17306THY    HP423113   7.024   0.605   3.660  1.1415  0.5443 -0.5055
17306THY    CP323114   7.022   0.566   3.314 -0.2357 -0.0533  0.1940
17306THY    HP523115   6.998   0.459   3.323 -0.0304  1.8932  0.2809
17306THY    HP623116   7.124   0.599   3.288  0.0825 -1.5896 -1.7709
17306THY    HP723117   6.967   0.604   3.227  1.4385 -1.4543 -0.4299
17306THY    CA323118   7.093   0.857   3.412  0.5549  0.0666  0.9439
17306THY    HA323119   7.183   0.797   3.403  0.3172 -0.7631  0.7039
17306THY    CA423120   7.093   0.992   3.395  0.7979 -0.2796  0.4321
17306THY    HA423121   7.185   1.033   3.355  1.2674  0.3358  0.0016
17306THY    CA523122   6.974   1.063   3.406 -0.4269 -0.1602  0.1582
17306THY    CM123123   6.984   1.211   3.412  0.4807 -0.2167 -0.5768
17306THY    HM123124   6.900   1.276   3.438  1.4679 -1.6499  1.4061
17306THY    HM223125   7.009   1.243   3.310 -0.3585 -0.5275 -0.9132
17306THY    HM323126   7.070   1.244   3.473 -1.6061  1.6433  1.8071
17306THY    CA623127   6.853   0.999   3.443 -0.2670  0.1169  0.7151
17306THY    HA623128   6.761   1.057   3.445 -0.2236  1.4379  0.7528
17307THY      O23129   3.299   6.574   7.917  0.4797 -0.5912 -0.2007
17307THY     HO23130   3.210   6.542   7.939 -0.0944 -3.7245 -1.0476
17307THY    CA123131   3.274   6.610   7.792 -1.0861  0.3335 -0.0244
17307THY    CA223132   3.370   6.648   7.700  0.5103  0.5915  0.4319
17307THY    CP123133   3.516   6.651   7.736  1.0579 -0.3726 -0.4519
17307THY    HP123134   3.524   6.647   7.845  1.3448 -0.3686  0.1891
17307THY    CP223135   3.593   6.772   7.684  0.3844  0.3719 -0.1039
17307THY    HP223136   3.699   6.762   7.711 -0.1198  1.8219 -2.0012
17307THY    HP323137   3.562   6.858   7.745 -1.5531 -0.6089 -0.0629
17307THY    HP423138   3.589   6.783   7.575  1.6407  0.2988 -0.1738
17307THY    CP323139   3.580   6.530   7.678  0.3554  0.3007 -0.0774
17307THY    HP523140   3.684   6.512   7.706  0.4466  0.1260  0.1705
17307THY    HP623141   3.574   6.528   7.569  0.8632  0.2512  0.6010
17307THY    HP723142   3.512   6.450   7.711  2.2602 -0.0190 -1.9341
17307THY    CA323143   3.329   6.678   7.568 -0.2197 -0.1204  0.0154
17307THY    HA323144   3.404   6.691   7.490  2.5607  2.1774 -1.2597
17307THY    CA423145   3.191   6.668   7.536  0.0733  0.0527 -0.0482
17307THY    HA423146   3.157   6.683   7.434 -2.1879  0.8293  0.5465
17307THY    CA523147   3.099   6.656   7.637  0.1096  0.6944  0.0183
17307THY    CM123148   2.954   6.670   7.626 -0.6002  0.1658 -0.1363
17307THY    HM123149   2.888   6.615   7.694 -0.5972 -1.8511 -2.7831
17307THY    HM223150   2.910   6.651   7.528  1.2775 -1.3389  2.5286
17307THY    HM323151   2.932   6.777   7.636 -0.7956  1.7226 -0.2896
17307THY    CA623152   3.140   6.630   7.766  1.2287  0.1696  0.1349
17307THY    HA623153   3.060   6.616   7.839  0.7416 -0.9491 -4.1483
17308THY      O23154   1.841   3.321   6.804 -0.1527  0.3790  0.0567
17308THY     HO23155   1.900   3.246   6.821 -0.8883 -0.6356 -0.7827
17308THY    CA123156   1.735   3.287   6.884  0.4623 -0.1280 -0.0541
17308THY    CA223157   1.603   3.311   6.840  0.3845  0.1317 -0.0387
17308THY    CP123158   1.583   3.366   6.689 -0.0694  0.8513 -0.2940
17308THY    HP123159   1.675   3.352   6.632 -0.8266 -1.1026  2.0252
17308THY    CP223160   1.550   3.512   6.693  0.0239 -0.1311 -0.2841
17308THY    HP223161   1.553   3.561   6.595 -0.1098  0.7416  1.5792
17308THY    HP323162   1.619   3.575   6.751 -0.5947  0.9951 -0.6193
17308THY    HP423163   1.454   3.525   6.745  0.2651  0.1756  0.3331
17308THY    CP323164   1.476   3.293   6.611  0.0300  0.1899 -0.0901
17308THY    HP523165   1.482   3.184   6.623 -0.3372 -2.3789 -0.4570
17308THY    HP623166   1.482   3.301   6.502 -2.1933  0.0146 -0.3270
17308THY    HP723167   1.381   3.339   6.639  1.1223  1.5375  1.4894
17308THY    CA323168   1.490   3.298   6.925 -0.2444 -0.8539 -0.7335
17308THY    HA323169   1.392   3.335   6.898 -0.8100  0.1714 -1.4191
17308THY    CA423170   1.515   3.260   7.058 -0.2711  0.0709 -0.3508
17308THY    HA423171   1.431   3.250   7.127  0.5582  2.3458  4.9821
17308THY    CA523172   1.646   3.232   7.104 -0.2050  0.2288  0.3420
17308THY    CM123173   1.667   3.203   7.245  0.3713  0.2453  0.0297
17308THY    HM123174   1.675   3.295   7.306  0.4761  0.9857 -0.4605
17308THY    HM223175   1.769   3.166   7.260  1.1649 -1.8027  1.2183
17308THY    HM323176   1.585   3.140   7.281 -1.5602 -2.0312  1.0952
17308THY    CA623177   1.755   3.245   7.015  0.0233 -0.4736 -0.2553
17308THY    HA623178   1.856   3.224   7.048  0.8062 -2.6244 -0.0483
17309THY      O23179   8.075   5.990   5.924 -0.1348  0.6517  0.1891
17309THY     HO23180   8.115   6.071   5.890  0.2785 -0.7057 -0.5564
17309THY    CA123181   7.992   5.948   5.826  0.1510 -0.3218  0.3663
17309THY    CA223182   7.978   5.814   5.795 -0.1846  0.5187 -0.0141
17309THY    CP123183   8.062   5.701   5.865 -0.1006 -0.1086 -0.5823
17309THY    HP123184   8.118   5.734   5.953  1.3591 -1.5924  1.1660
17309THY    CP223185   8.169   5.655   5.762 -0.7755 -0.2695 -0.1308
17309THY    HP223186   8.203   5.553   5.781 -2.6432  1.4233 -0.5028
17309THY    HP323187   8.262   5.712   5.761  1.4615 -0.4700 -3.5432
17309THY    HP423188   8.140   5.652   5.656  0.6328 -0.7157  1.1618
17309THY    CP323189   7.972   5.580   5.889 -0.5233 -0.0577 -0.0423
17309THY    HP523190   7.948   5.514   5.805  1.7089 -0.6734 -0.1139
17309THY    HP623191   7.892   5.610   5.958  0.2687  1.2128 -0.7586
17309THY    HP723192   8.031   5.505   5.944 -1.1495 -0.6009 -0.9595
17309THY    CA323193   7.894   5.783   5.681 -0.2749 -0.4614 -0.6446
17309THY    HA323194   7.885   5.679   5.653  1.3476  0.1491 -0.9826
17309THY    CA423195   7.823   5.883   5.614  0.8130 -0.2191  0.3563
17309THY    HA423196   7.749   5.854   5.541  2.2988 -0.7639 -2.4869
17309THY    CA523197   7.840   6.016   5.656  0.1695 -0.1542 -0.3858
17309THY    CM123198   7.774   6.135   5.584 -0.0747 -0.1006 -0.2148
17309THY    HM123199   7.810   6.235   5.614  1.7484 -0.3855 -0.7498
17309THY    HM223200   7.665   6.137   5.591 -0.1181 -0.7199  1.1742
17309THY    HM323201   7.792   6.124   5.477  0.0489 -0.1682  0.5849
17309THY    CA623202   7.934   6.048   5.755  0.4793  0.0557 -0.0310
17309THY    HA623203   7.945   6.153   5.780 -3.0425 -2.7485  1.1883
17310THY      O23204   7.046   4.794   7.687 -0.1145 -0.0493 -0.0777
17310THY     HO23205   7.042   4.860   7.616  1.2274 -0.3177 -0.2531
17310THY    CA123206   7.181   4.779   7.708 -0.4192 -0.3413  0.5108
17310THY    CA223207   7.236   4.678   7.790 -0.3389 -0.3271  0.4501
17310THY    CP123208   7.142   4.562   7.834 -0.0169  0.4171  0.9671
17310THY    HP123209   7.036   4.587   7.822 -0.3908  0.0574 -0.6828
17310THY    CP223210   7.156   4.513   7.977  0.1002 -0.1803  0.6607
17310THY    HP223211   7.180   4.588   8.053  2.2905  2.1936 -2.2408
17310THY    HP323212   7.241   4.444   7.981 -0.0596 -4.1570 -0.0393
17310THY    HP423213   7.073   4.451   8.013  0.0256 -0.4067  0.6273
17310THY    CP323214   7.161   4.445   7.750 -0.7749  0.6232  0.2290
17310THY    HP523215   7.135   4.475   7.647  0.1918  0.7996  1.7697
17310THY    HP623216   7.088   4.370   7.783 -0.5389 -0.5986 -0.5800
17310THY    HP723217   7.257   4.393   7.757 -1.4715  0.5275 -1.1017
17310THY    CA323218   7.371   4.665   7.813 -0.5183  0.0580  0.2808
17310THY    HA323219   7.393   4.574   7.868 -3.9973  0.7452 -0.2823
17310THY    CA423220   7.460   4.764   7.754 -0.3015 -0.1811 -0.3130
17310THY    HA423221   7.567   4.754   7.769 -0.5174  1.0625 -0.8524
17310THY    CA523222   7.405   4.855   7.665 -0.1000  0.7002 -0.0499
17310THY    CM123223   7.499   4.932   7.573 -0.2620  0.3443  0.9947
17310THY    HM123224   7.577   4.867   7.534  0.0101  0.6213  1.1518
17310THY    HM223225   7.549   5.022   7.611 -0.0893 -1.3368  1.6470
17310THY    HM323226   7.453   4.976   7.484  1.9993 -1.4092 -0.0229
17310THY    CA623227   7.266   4.858   7.642 -0.7982  0.4803 -0.2244
17310THY    HA623228   7.235   4.923   7.561 -1.3008 -0.0250 -1.0823
17311THY      O23229   3.414   5.110   2.756  0.0785  0.1464  0.4856
17311THY     HO23230   3.497   5.108   2.705  0.2694  0.4741 -1.0501
17311THY    CA123231   3.303   5.076   2.675 -0.2415 -0.5277  0.2003
17311THY    CA223232   3.171   5.074   2.719  1.2831  0.3161  0.4868
17311THY    CP123233   3.132   5.099   2.860 -0.4242 -0.1544  0.0978
17311THY    HP123234   3.219   5.086   2.926  0.6337 -1.3278  0.9538
17311THY    CP223235   3.021   5.002   2.911  0.1535  0.0255 -0.2648
17311THY    HP223236   3.044   4.898   2.889  1.6433 -0.7330  0.2062
17311THY    HP323237   2.924   5.033   2.870 -0.5477  2.1159  0.5050
17311THY    HP423238   3.011   5.013   3.020  1.3833  0.1642 -0.4570
17311THY    CP323239   3.092   5.242   2.886 -0.6759  0.2421  0.3005
17311THY    HP523240   3.001   5.279   2.836 -1.2421  0.9334 -0.1313
17311THY    HP623241   3.174   5.306   2.852 -1.6622 -1.1468  0.8772
17311THY    HP723242   3.091   5.259   2.994  0.6990  0.2738  0.2790
17311THY    CA323243   3.066   5.043   2.621 -0.1186 -0.1373  0.3474
17311THY    HA323244   2.962   5.035   2.652  0.1582  0.6837 -0.2499
17311THY    CA423245   3.091   5.013   2.491 -0.2672 -0.3876  0.1195
17311THY    HA423246   3.007   4.991   2.425 -0.8237 -0.1837  1.5231
17311THY    CA523247   3.225   5.020   2.449  0.4719  0.2858 -0.2679
17311THY    CM123248   3.247   5.001   2.302 -0.5378  0.3328  0.3313
17311THY    HM123249   3.344   4.949   2.303  0.2937  1.1411  1.8238
17311THY    HM223250   3.275   5.099   2.262 -0.4613  1.5862  0.8455
17311THY    HM323251   3.172   4.945   2.245  0.1638 -1.4117  1.1132
17311THY    CA623252   3.325   5.052   2.544 -0.4684  0.3657  0.1191
17311THY    HA623253   3.428   5.055   2.511 -0.8409 -0.9799 -1.0558
17312THY      O23254   1.381   4.161   6.153 -0.1390  0.9807 -0.3736
17312THY     HO23255   1.362   4.079   6.201  1.4835 -2.6622 -3.1396
17312THY    CA123256   1.337   4.140   6.025  0.0134  0.4107 -0.0193
17312THY    CA223257   1.208   4.186   5.987 -0.5102  0.0587  0.4781
17312THY    CP123258   1.119   4.254   6.093 -0.3206 -0.0249 -0.2063
17312THY    HP123259   1.168   4.278   6.188 -0.0955 -0.6056  1.7686
17312THY    CP223260   0.997   4.170   6.144 -0.2132 -0.5372 -0.2992
17312THY    HP223261   1.035   4.091   6.209  0.3119 -1.0588 -0.4799
17312THY    HP323262   0.939   4.117   6.067 -1.3483  0.2816 -0.2876
17312THY    HP423263   0.925   4.225   6.206 -0.0145 -0.2113 -0.4071
17312THY    CP323264   1.077   4.389   6.038  0.0603 -0.4317 -0.4234
17312THY    HP523265   1.170   4.438   6.007 -0.5567 -1.0896  0.3594
17312THY    HP623266   1.034   4.447   6.120 -1.1560 -1.6924  0.5346
17312THY    HP723267   0.996   4.370   5.966  0.6436 -1.1189 -0.3320
17312THY    CA323268   1.168   4.169   5.855  0.0331 -0.1706  0.2328
17312THY    HA323269   1.071   4.196   5.815 -0.8586  0.8391 -1.3229
17312THY    CA423270   1.259   4.114   5.762  0.0749  0.3030 -0.9364
17312THY    HA423271   1.241   4.109   5.655 -1.2801  0.4245  0.5346
17312THY    CA523272   1.387   4.067   5.808  0.5485  0.5048 -0.4374
17312THY    CM123273   1.481   4.022   5.706  0.4193 -0.5073  0.1855
17312THY    HM123274   1.452   4.016   5.600  0.8633 -0.5553 -2.3701
17312THY    HM223275   1.508   3.919   5.732  2.1493 -2.4550  0.0715
17312THY    HM323276   1.573   4.079   5.723  0.7676  0.0025 -0.5035
17312THY    CA623277   1.419   4.078   5.940 -0.1929 -0.1341  0.6745
17312THY    HA623278   1.519   4.051   5.973 -0.3586 -0.7404 -0.7818
17313THY      O23279   4.937   7.995   6.166 -0.2848 -0.2669  0.2060
17313THY     HO23280   4.959   8.080   6.125 -2.0463  1.0884  1.3907
17313THY    CA123281   4.865   8.022   6.282 -0.0804  0.6743  0.3779
17313THY    CA223282   4.788   8.137   6.308  0.3284  0.3933  0.7468
17313THY    CP123283   4.777   8.238   6.201 -0.0305  0.8417 -0.3921
17313THY    HP123284   4.782   8.187   6.104  0.4123  1.5121 -1.6766
17313THY    CP223285   4.887   8.345   6.209  0.5720  0.4568  0.5281
17313THY    HP223286   4.852   8.408   6.291 -3.6626  0.0118 -0.8593
17313THY    HP323287   4.879   8.399   6.114 -1.2717  0.1405 -0.2058
17313THY    HP423288   4.986   8.300   6.221  1.5076 -0.3882  2.2564
17313THY    CP323289   4.639   8.301   6.178 -0.1298 -0.5723  0.9094
17313THY    HP523290   4.566   8.221   6.191  0.8932 -0.5773 -0.0400
17313THY    HP623291   4.633   8.345   6.078  0.6366 -0.9336  0.2183
17313THY    HP723292   4.621   8.371   6.260 -0.0062  1.1050 -0.9430
17313THY    CA323293   4.723   8.154   6.433 -0.3022  0.5180 -0.3412
17313THY    HA323294   4.659   8.241   6.444 -2.4549 -1.1168 -1.6125
17313THY    CA423295   4.730   8.051   6.523 -0.1887 -0.2692  0.7232
17313THY    HA423296   4.665   8.053   6.610 -0.5274 -0.5030  2.8878
17313THY    CA523297   4.812   7.943   6.500  0.3638  0.2335 -0.2176
17313THY    CM123298   4.800   7.834   6.601  0.8340 -0.6237 -0.0375
17313THY    HM123299   4.787   7.868   6.704  0.5736 -0.6274 -0.1297
17313THY    HM223300   4.890   7.771   6.592  0.7062 -3.0625  0.0541
17313THY    HM323301   4.722   7.762   6.576 -0.3700  0.8987  0.6877
17313THY    CA623302   4.875   7.929   6.381 -0.7774  0.0492  0.1586
17313THY    HA623303   4.922   7.834   6.357  0.4152  0.9161  0.5117
17314THY      O23304   4.540   3.178   1.799 -0.0453 -0.4426  0.1419
17314THY     HO23305   4.564   3.145   1.711 -0.6944 -0.6412  0.1890
17314THY    CA123306   4.440   3.094   1.834  0.4244  0.8708 -0.2191
17314THY    CA223307   4.386   3.095   1.963 -0.9226 -0.4793  0.4904
17314THY    CP123308   4.463   3.160   2.078  0.1209 -0.7651 -0.1875
17314THY    HP123309   4.533   3.237   2.043 -0.8826  2.2426  2.2732
17314THY    CP223310   4.540   3.039   2.138  0.2022  0.0116  0.7206
17314THY    HP223311   4.618   3.083   2.202 -0.5785  0.9975  0.6883
17314THY    HP323312   4.596   2.975   2.069 -0.4445 -0.5282  0.7255
17314THY    HP423313   4.478   2.977   2.204  1.5052  3.1091  2.4551
17314THY    CP323314   4.375   3.250   2.181  0.0333 -0.0598  0.1256
17314THY    HP523315   4.440   3.291   2.258 -0.6622  0.0349  1.0840
17314THY    HP623316   4.298   3.192   2.233 -0.0022 -0.5219 -0.2459
17314THY    HP723317   4.321   3.333   2.134 -1.4314 -0.7498 -1.1709
17314THY    CA323318   4.279   3.006   1.997 -0.4555 -0.0754 -0.2354
17314THY    HA323319   4.245   3.008   2.100  0.9990  0.4668 -1.2803
17314THY    CA423320   4.217   2.934   1.899 -0.5538 -0.1729 -0.1669
17314THY    HA423321   4.132   2.870   1.924  1.0286 -1.0999 -2.7976
17314THY    CA523322   4.264   2.934   1.765 -0.2387 -0.1074 -0.0528
17314THY    CM123323   4.199   2.853   1.654 -0.2767  0.6828  0.5181
17314THY    HM123324   4.191   2.914   1.564  1.1975 -2.4154 -3.4274
17314THY    HM223325   4.102   2.811   1.680  0.4698 -0.6704 -2.2558
17314THY    HM323326   4.265   2.768   1.635  1.3347 -1.6597  2.1647
17314THY    CA623327   4.381   3.007   1.732  0.0550  1.2493 -0.0398
17314THY    HA623328   4.409   3.015   1.627  0.4484  1.3527 -0.0273
17315THY      O23329   8.505   2.456   3.471 -0.0725  0.8637 -0.1073
17315THY     HO23330   8.488   2.501   3.556  0.4619 -0.1140  2.0668
17315THY    CA123331   8.527   2.321   3.489 -0.1636 -0.2051  0.1647
17315THY    CA223332   8.551   2.228   3.379  0.1998 -0.3905 -0.5291
17315THY    CP123333   8.534   2.283   3.235  0.3635  1.1046  0.1670
17315THY    HP123334   8.500   2.387   3.246 -0.9137 -0.8853  0.0091
17315THY    CP223335   8.420   2.203   3.163 -0.1194 -0.9540  0.1081
17315THY    HP223336   8.327   2.205   3.223  1.3902  1.5659 -0.4468
17315THY    HP323337   8.450   2.099   3.152  1.4406  5.2133 -0.4929
17315THY    HP423338   8.394   2.245   3.065  0.8616 -1.3944 -0.2952
17315THY    CP323339   8.670   2.291   3.160 -0.2601  0.5022  0.3713
17315THY    HP523340   8.705   2.190   3.135 -0.4184 -2.6871  1.0204
17315THY    HP623341   8.743   2.343   3.223  0.6015 -0.8724  0.8800
17315THY    HP723342   8.670   2.333   3.059 -0.4897  0.1903 -0.3596
17315THY    CA323343   8.577   2.091   3.399  0.1427 -0.3372  0.6716
17315THY    HA323344   8.578   2.019   3.319  2.1799 -0.3293  0.6348
17315THY    CA423345   8.580   2.051   3.536  0.1327 -0.0618  0.4121
17315THY    HA423346   8.605   1.947   3.551  0.0199 -1.6630  0.1190
17315THY    CA523347   8.560   2.139   3.637  0.5571 -0.2237 -0.3623
17315THY    CM123348   8.578   2.091   3.782 -0.1152 -0.2775 -0.0618
17315THY    HM123349   8.587   1.983   3.797 -2.7235 -0.0580 -0.3144
17315THY    HM223350   8.487   2.110   3.842  0.6109  0.4287  1.3845
17315THY    HM323351   8.656   2.155   3.825  0.8958 -1.8114 -0.2252
17315THY    CA623352   8.531   2.273   3.615  0.3870  0.0270  0.3660
17315THY    HA623353   8.504   2.336   3.700  0.6171  0.9710 -0.7681
17316THY      O23354   4.238   7.936   2.707 -0.0029 -0.0413 -0.1146
17316THY     HO23355   4.194   7.916   2.623  0.8269 -0.8929  1.4343
17316THY    CA123356   4.339   7.838   2.722  0.7026 -0.2568 -0.5997
17316THY    CA223357   4.394   7.811   2.848  0.1011  0.0483 -0.4513
17316THY    CP123358   4.353   7.900   2.976  0.2174 -0.2742  0.3605
17316THY    HP123359   4.314   7.998   2.947  1.5554  0.0336  1.0143
17316THY    CP223360   4.485   7.940   3.054  0.0666 -0.2813  0.7140
17316THY    HP223361   4.472   8.029   3.116 -2.1971  0.5349 -0.1026
17316THY    HP323362   4.570   7.947   2.985  1.1538  0.5890 -2.4721
17316THY    HP423363   4.508   7.862   3.127 -0.4011 -0.6241  0.2452
17316THY    CP323364   4.251   7.844   3.077  0.1562 -0.1509  0.8863
17316THY    HP523365   4.299   7.758   3.127  1.1112 -0.3748  1.2831
17316THY    HP623366   4.155   7.812   3.035 -1.2995  4.2302 -1.4138
17316THY    HP723367   4.227   7.930   3.141 -3.0145  0.7235 -0.4898
17316THY    CA323368   4.488   7.706   2.857 -0.2180 -0.2240 -0.6922
17316THY    HA323369   4.543   7.689   2.949  0.8774  0.0165  3.1854
17316THY    CA423370   4.519   7.638   2.744  0.4366 -0.5371 -0.2325
17316THY    HA423371   4.589   7.555   2.753 -0.9700  1.8519 -1.2590
17316THY    CA523372   4.471   7.674   2.622 -0.7437  0.3667 -0.2943
17316THY    CM123373   4.521   7.608   2.499  0.0073  0.5715 -0.1924
17316THY    HM123374   4.531   7.502   2.525  1.9876 -1.0233 -0.4745
17316THY    HM223375   4.617   7.652   2.469  0.6611  1.7541 -0.7663
17316THY    HM323376   4.450   7.623   2.417 -0.6213  0.8103 -1.7068
17316THY    CA623377   4.375   7.770   2.614 -0.7599  0.3126 -0.2903
17316THY    HA623378   4.333   7.796   2.518 -0.6212  0.3765  0.1697
17317THY      O23379   1.241   0.712   5.649  1.1906 -0.3765 -0.6851
17317THY     HO23380   1.251   0.808   5.639  0.1602  0.0829 -0.5159
17317THY    CA123381   1.346   0.664   5.586 -0.0263 -0.0831  0.4607
17317THY    CA223382   1.422   0.545   5.627  0.6394 -0.6964 -0.0354
17317THY    CP123383   1.388   0.472   5.760  0.3085 -0.7120  0.0411
17317THY    HP123384   1.333   0.537   5.828 -0.6910  0.6236 -2.0717
17317THY    CP223385   1.504   0.413   5.835 -0.0822  0.0154  0.2763
17317THY    HP223386   1.580   0.491   5.824 -0.3605  0.9265  0.6832
17317THY    HP323387   1.545   0.314   5.809  0.2114  0.5209  0.2610
17317THY    HP423388   1.461   0.411   5.936 -2.3987 -0.8978 -1.3884
17317THY    CP323389   1.294   0.357   5.723  0.3686 -0.5823 -0.1247
17317THY    HP523390   1.277   0.298   5.814  2.0984  0.6287  1.1184
17317THY    HP623391   1.331   0.304   5.634 -0.0694 -0.7962 -0.0707
17317THY    HP723392   1.194   0.385   5.689  0.6739 -0.8288  0.6813
17317THY    CA323393   1.518   0.497   5.539 -1.0657  0.0467  0.0583
17317THY    HA323394   1.574   0.408   5.568  0.6430 -0.2220  1.0022
17317THY    CA423395   1.554   0.570   5.430 -0.3268 -0.4716 -0.8257
17317THY    HA423396   1.644   0.544   5.375  0.7025  0.6787  0.1646
17317THY    CA523397   1.479   0.683   5.393 -0.2597  0.2999  0.4495
17317THY    CM123398   1.517   0.759   5.272  0.3277 -0.5792  0.5012
17317THY    HM123399   1.622   0.791   5.268  0.4849  2.0554  0.5438
17317THY    HM223400   1.459   0.851   5.260  0.4467  1.7125  0.9224
17317THY    HM323401   1.495   0.703   5.180 -2.2014 -0.4869  1.2335
17317THY    CA623402   1.380   0.730   5.469  0.2772 -1.2019  0.0226
17317THY    HA623403   1.331   0.820   5.432 -0.1140 -1.0965 -0.1454
17318THY      O23404   9.157   6.061   1.564 -0.9112  0.0572  0.7135
17318THY     HO23405   9.155   6.119   1.485  2.0998 -1.1664 -0.6275
17318THY    CA123406   9.182   6.150   1.667  0.0799 -0.4412 -0.2764
17318THY    CA223407   9.212   6.101   1.797 -0.1368  0.3209 -0.0457
17318THY    CP123408   9.234   5.954   1.837 -0.4492 -0.3549  0.8238
17318THY    HP123409   9.210   5.888   1.753 -2.9994  0.4583  0.5931
17318THY    CP223410   9.123   5.913   1.934 -0.8803 -1.2732 -0.3063
17318THY    HP223411   9.136   5.809   1.967 -0.5756  0.7921  0.3458
17318THY    HP323412   9.024   5.931   1.890 -1.1134 -0.7272 -0.2251
17318THY    HP423413   9.130   5.979   2.021  1.7451 -0.6619 -1.2806
17318THY    CP323414   9.371   5.937   1.896  0.2353 -0.2320  0.1615
17318THY    HP523415   9.371   5.986   1.994 -2.4004 -0.5842  1.0032
17318THY    HP623416   9.443   5.996   1.839 -0.0939 -0.1520  0.6513
17318THY    HP723417   9.392   5.831   1.917  1.2859 -0.5362  0.3004
17318THY    CA323418   9.225   6.201   1.899  0.4125  0.3311 -0.0532
17318THY    HA323419   9.249   6.171   2.001  2.0076 -0.3202 -1.0991
17318THY    CA423420   9.193   6.335   1.868  0.4404  0.7699  0.1038
17318THY    HA423421   9.186   6.406   1.950  3.4574  1.1255  0.1393
17318THY    CA523422   9.177   6.378   1.736 -0.2179  0.6179 -1.0144
17318THY    CM123423   9.162   6.528   1.702 -0.0323 -0.4027  0.2878
17318THY    HM123424   9.176   6.546   1.595  1.8568 -0.2115  0.1923
17318THY    HM223425   9.239   6.587   1.753  2.7071 -2.8158 -0.9584
17318THY    HM323426   9.067   6.562   1.743  0.6003  1.8510 -0.4703
17318THY    CA623427   9.170   6.281   1.635  0.7519 -0.0496 -0.2775
17318THY    HA623428   9.157   6.316   1.533 -1.2050 -0.4714 -2.0035
17319THY      O23429   4.215   4.181   3.885 -0.7212  0.3805  0.0866
17319THY     HO23430   4.162   4.251   3.926 -0.0654  0.1832  0.7149
17319THY    CA123431   4.241   4.095   3.985  0.3183 -0.5415  0.0098
17319THY    CA223432   4.371   4.081   4.033 -0.6771  0.2225 -0.2452
17319THY    CP123433   4.486   4.176   3.991  0.4499  0.3037  0.2013
17319THY    HP123434   4.456   4.232   3.901 -0.4947  0.9408  0.7352
17319THY    CP223435   4.629   4.116   3.958  0.4091  0.0123 -0.2308
17319THY    HP223436   4.694   4.190   3.911  1.5509 -0.5075 -1.5241
17319THY    HP323437   4.609   4.033   3.889 -1.9266 -0.6083  0.7770
17319THY    HP423438   4.670   4.073   4.051 -0.8501  1.6743  1.9455
17319THY    CP323439   4.491   4.296   4.093 -0.4138 -0.3132  1.4100
17319THY    HP523440   4.515   4.257   4.193 -2.0755  0.1645  1.5114
17319THY    HP623441   4.390   4.340   4.094 -0.9242  2.0791  0.3876
17319THY    HP723442   4.556   4.371   4.049 -1.6716 -0.7199  2.2975
17319THY    CA323443   4.388   3.998   4.144 -0.2587  0.1349  0.2381
17319THY    HA323444   4.480   4.002   4.202  0.0164 -0.3503  1.1683
17319THY    CA423445   4.284   3.917   4.190  0.4251 -1.2673 -0.3986
17319THY    HA423446   4.310   3.842   4.264  1.0244  2.4882  3.1712
17319THY    CA523447   4.154   3.936   4.148 -0.7258  0.1193  0.1026
17319THY    CM123448   4.039   3.860   4.211 -0.1620 -0.1001 -0.1680
17319THY    HM123449   4.008   3.775   4.148  2.0646  1.7357 -2.5128
17319THY    HM223450   3.946   3.916   4.224 -1.4582 -1.3570 -1.9307
17319THY    HM323451   4.062   3.824   4.312 -1.3498  0.7565  1.3688
17319THY    CA623452   4.129   4.021   4.037 -0.3304 -0.0195 -0.0735
17319THY    HA623453   4.028   4.038   4.002 -1.0150  1.5514 -0.6947
17320THY      O23454   3.095   0.675   5.520 -0.4856  0.2486  0.5188
17320THY     HO23455   3.031   0.739   5.557 -2.1662 -2.7015  0.7310
17320THY    CA123456   3.063   0.674   5.385 -0.0125 -0.5184  0.3219
17320THY    CA223457   3.113   0.567   5.307  0.5646 -0.2253 -0.8275
17320THY    CP123458   3.203   0.458   5.359  0.2013  0.1066  0.6350
17320THY    HP123459   3.220   0.466   5.467  1.2606 -0.0514  0.6999
17320THY    CP223460   3.348   0.461   5.303  0.2195  0.1991 -0.3008
17320THY    HP223461   3.350   0.416   5.203  0.8345  0.0257  0.1119
17320THY    HP323462   3.414   0.405   5.370  2.8693 -1.3501  0.8089
17320THY    HP423463   3.379   0.565   5.292  0.2570  2.5569 -0.0203
17320THY    CP323464   3.133   0.325   5.321  0.1842  0.7442  0.4657
17320THY    HP523465   3.139   0.319   5.212 -0.0952  0.5914  2.4403
17320THY    HP623466   3.030   0.332   5.357 -0.3274 -0.9372  2.6283
17320THY    HP723467   3.184   0.238   5.364 -2.8831 -1.0391 -2.4485
17320THY    CA323468   3.089   0.567   5.173  0.2647  0.4115 -0.1676
17320THY    HA323469   3.140   0.495   5.108  0.3426  0.1046  0.1648
17320THY    CA423470   2.997   0.663   5.112 -0.1851  0.2563  1.0524
17320THY    HA423471   2.973   0.666   5.006  0.6739  0.0606  1.3475
17320THY    CA523472   2.935   0.756   5.195 -0.4653  0.3735 -0.3892
17320THY    CM123473   2.849   0.862   5.144 -0.5556  0.1560  0.4040
17320THY    HM123474   2.752   0.845   5.193  0.2912  1.1875 -1.8680
17320THY    HM223475   2.844   0.862   5.035 -1.2750  0.1797 -0.3510
17320THY    HM323476   2.892   0.962   5.161 -0.1507 -1.5595  0.5469
17320THY    CA623477   2.972   0.767   5.329  0.2779 -0.4911 -0.1034
17320THY    HA623478   2.929   0.842   5.395  1.8233  0.1138  0.2840
17321THY      O23479   0.421   5.924   6.090 -0.9265  0.4062  0.1181
17321THY     HO23480   0.327   5.909   6.069 -0.8341 -1.3277  1.6890
17321THY    CA123481   0.422   5.975   6.213  0.1364  0.0964 -0.2349
17321THY    CA223482   0.540   6.033   6.267  0.2104 -0.2196  0.5150
17321THY    CP123483   0.658   6.063   6.178 -1.1970  0.7112 -0.1285
17321THY    HP123484   0.664   5.995   6.092  3.2174  0.2585  0.5668
17321THY    CP223485   0.794   6.024   6.234 -0.4034 -0.0252 -1.6865
17321THY    HP223486   0.810   5.916   6.235 -0.9171 -0.3626 -1.7683
17321THY    HP323487   0.815   6.070   6.331  1.7073 -0.3565 -1.8380
17321THY    HP423488   0.874   6.064   6.170 -1.0014  1.1831  1.7575
17321THY    CP323489   0.653   6.211   6.131  0.3975 -0.2465  0.3372
17321THY    HP523490   0.565   6.219   6.066 -2.7691  3.0401 -3.2478
17321THY    HP623491   0.749   6.241   6.089 -0.7096 -1.8758  1.8003
17321THY    HP723492   0.633   6.280   6.214 -0.6225  0.0942 -0.3419
17321THY    CA323493   0.537   6.076   6.396  0.1527 -0.6709  0.3761
17321THY    HA323494   0.619   6.131   6.442  1.9131 -0.2595 -2.3927
17321THY    CA423495   0.425   6.055   6.476  0.1065 -0.5062 -0.3265
17321THY    HA423496   0.428   6.092   6.578  0.8813 -0.5719 -0.1725
17321THY    CA523497   0.315   5.996   6.427  0.0674 -0.1389 -0.5314
17321THY    CM123498   0.188   5.989   6.507  0.0080  0.5280  0.5978
17321THY    HM123499   0.157   5.885   6.515  1.3034 -1.4654  0.0088
17321THY    HM223500   0.108   6.043   6.455 -0.1710 -1.8251 -1.7646
17321THY    HM323501   0.216   6.021   6.608  3.2314 -0.2011  0.5059
17321THY    CA623502   0.317   5.955   6.291 -0.0017 -0.0032 -0.0600
17321THY    HA623503   0.228   5.901   6.260  0.5057 -0.7528 -0.4965
17322THY      O23504   3.557   2.898   4.523  0.4114 -0.2093 -0.3426
17322THY     HO23505   3.503   2.880   4.602 -1.3818 -1.8974 -3.0828
17322THY    CA123506   3.563   2.778   4.459  0.2266  0.1601  0.0694
17322THY    CA223507   3.682   2.735   4.400  0.3560 -0.3146 -0.1625
17322THY    CP123508   3.809   2.824   4.404  0.3553 -0.1427  0.0887
17322THY    HP123509   3.820   2.860   4.507  0.2286  0.1640 -0.7217
17322THY    CP223510   3.795   2.950   4.324 -0.0021  0.7085 -0.4143
17322THY    HP223511   3.897   2.987   4.311  0.3293  2.0538 -0.7810
17322THY    HP323512   3.728   3.022   4.374  0.1137 -1.5870  1.3869
17322THY    HP423513   3.749   2.934   4.226  0.1453  0.8175 -1.5702
17322THY    CP323514   3.935   2.749   4.362  0.7754  0.7469  0.1260
17322THY    HP523515   3.929   2.735   4.253  0.0027  0.8398 -0.3250
17322THY    HP623516   3.932   2.657   4.422 -0.4425  0.1081 -0.2723
17322THY    HP723517   4.030   2.802   4.379  0.5930 -2.4405  1.7235
17322THY    CA323518   3.672   2.613   4.326  0.4918 -0.2443 -0.2691
17322THY    HA323519   3.754   2.578   4.264  2.0471  1.5732 -0.0373
17322THY    CA423520   3.556   2.540   4.324  0.2040  0.1248 -0.2043
17322THY    HA423521   3.546   2.442   4.280 -4.3902  2.4373 -1.0779
17322THY    CA523522   3.443   2.587   4.392 -0.8835 -0.3592  0.5209
17322THY    CM123523   3.316   2.506   4.400 -0.2214  0.1361  0.2762
17322THY    HM123524   3.275   2.509   4.298  2.8418 -1.1882  0.2338
17322THY    HM223525   3.245   2.545   4.474 -0.0294  0.5119 -0.0836
17322THY    HM323526   3.335   2.401   4.424 -0.8278 -1.1769 -0.1565
17322THY    CA623527   3.442   2.713   4.449  0.5768 -0.5116  0.3060
17322THY    HA623528   3.349   2.756   4.485  0.4652 -0.4586  0.0261
17323THY      O23529   1.837   2.726   3.085  0.0720 -0.6177  1.0869
17323THY     HO23530   1.922   2.685   3.061 -0.5010  2.4729 -2.4832
17323THY    CA123531   1.825   2.698   3.220  0.0206 -0.0148 -0.2400
17323THY    CA223532   1.701   2.706   3.284  0.3319 -0.6474  0.7334
17323THY    CP123533   1.565   2.752   3.213 -0.8222 -0.2960  0.3378
17323THY    HP123534   1.594   2.808   3.123  1.3573 -0.5160 -1.0091
17323THY    CP223535   1.483   2.846   3.303 -0.4627 -0.9416  0.4407
17323THY    HP223536   1.408   2.914   3.262 -1.0608  0.9168  0.9754
17323THY    HP323537   1.544   2.911   3.367 -1.8436  1.8508 -0.8203
17323THY    HP423538   1.420   2.784   3.368  0.2090  1.4455  2.1276
17323THY    CP323539   1.475   2.640   3.175  0.6846 -0.7085  0.1521
17323THY    HP523540   1.377   2.663   3.132  0.5305 -0.0988  0.6472
17323THY    HP623541   1.452   2.583   3.266  3.4998 -0.5835 -0.9784
17323THY    HP723542   1.535   2.578   3.107  0.4392  0.7788 -1.8436
17323THY    CA323543   1.699   2.674   3.415  0.5378  0.1171 -0.3375
17323THY    HA323544   1.607   2.676   3.474  1.8303  2.2135  0.5333
17323THY    CA423545   1.806   2.623   3.479  0.6634  0.0242 -0.0156
17323THY    HA423546   1.790   2.580   3.578  0.8007 -0.8874 -2.3478
17323THY    CA523547   1.934   2.612   3.412  0.1939 -0.4841 -0.3073
17323THY    CM123548   2.050   2.564   3.493 -0.3385  0.3818 -0.4865
17323THY    HM123549   2.034   2.558   3.602  2.7438  1.1157  2.0065
17323THY    HM223550   2.127   2.640   3.479  1.4444  1.9719 -1.8777
17323THY    HM323551   2.092   2.472   3.451  1.8826 -0.7288  0.9522
17323THY    CA623552   1.942   2.652   3.277  0.9071 -0.5800  0.2628
17323THY    HA623553   2.034   2.643   3.221  1.8611  1.0595 -0.7482
17324THY      O23554   7.990   6.893   5.455  0.0718  0.1812  0.0670
17324THY     HO23555   8.078   6.853   5.463 -1.1457  0.0908 -2.8398
17324THY    CA123556   7.968   6.958   5.571  0.9765 -0.0486  0.2847
17324THY    CA223557   7.837   6.989   5.607  0.2050 -0.1049  0.0348
17324THY    CP123558   7.715   6.965   5.515 -0.4390 -0.5014 -0.6335
17324THY    HP123559   7.741   6.896   5.434  0.6257  1.2545 -2.3939
17324THY    CP223560   7.679   7.104   5.447  0.0000  0.0645  0.2859
17324THY    HP223561   7.639   7.181   5.514 -2.1309  0.6343 -1.2243
17324THY    HP323562   7.601   7.089   5.372  0.2690  0.2157 -2.3605
17324THY    HP423563   7.772   7.137   5.398 -0.3682 -1.2659 -0.5687
17324THY    CP323564   7.594   6.915   5.601  0.0969  0.3591 -0.1123
17324THY    HP523565   7.632   6.829   5.657  0.5362  0.6357  0.2559
17324THY    HP623566   7.514   6.879   5.536 -1.2249  0.4204  2.4787
17324THY    HP723567   7.550   6.974   5.682 -0.5773  0.0922 -0.2505
17324THY    CA323568   7.816   7.058   5.727  0.6017 -0.1583  0.3590
17324THY    HA323569   7.718   7.095   5.754  0.1348  0.3070 -1.1220
17324THY    CA423570   7.925   7.097   5.806  0.0612  0.7909  0.0879
17324THY    HA423571   7.907   7.147   5.901 -2.7377 -0.5135  1.8675
17324THY    CA523572   8.055   7.061   5.771 -0.3336 -0.5899  0.1515
17324THY    CM123573   8.178   7.103   5.852 -0.5711  0.0984  0.7526
17324THY    HM123574   8.262   7.129   5.786  0.7969  0.6500 -1.9264
17324THY    HM223575   8.223   7.017   5.903 -0.9658 -2.9962 -1.4527
17324THY    HM323576   8.169   7.176   5.933 -1.9986  2.5697 -1.9403
17324THY    CA623577   8.074   6.987   5.652  0.6206  0.6929 -0.2509
17324THY    HA623578   8.173   6.959   5.618  0.9263  1.0652  0.3808
17325THY      O23579   5.248   6.480   2.686 -0.1015  0.3271 -0.1752
17325THY     HO23580   5.225   6.464   2.593  0.4355  0.1772 -0.1029
17325THY    CA123581   5.194   6.600   2.702 -0.6841 -0.8423 -0.3088
17325THY    CA223582   5.256   6.704   2.785  0.4393 -0.0983  0.4320
17325THY    CP123583   5.393   6.681   2.855 -0.3745 -0.2464 -0.9466
17325THY    HP123584   5.422   6.576   2.856  0.2533 -0.1252 -0.7740
17325THY    CP223585   5.383   6.729   3.000 -0.1666 -1.0440  0.8017
17325THY    HP223586   5.381   6.839   3.004 -0.7920 -0.3869  0.7764
17325THY    HP323587   5.473   6.704   3.057 -0.7932 -0.6721 -0.6772
17325THY    HP423588   5.288   6.697   3.044 -1.3469 -2.9682  1.4813
17325THY    CP323589   5.495   6.762   2.783 -0.2235 -0.4723  0.0727
17325THY    HP523590   5.593   6.738   2.827  0.0958 -0.9176  0.5461
17325THY    HP623591   5.473   6.869   2.789 -3.1705  0.1338 -0.4940
17325THY    HP723592   5.502   6.735   2.677  2.4898 -0.7966  1.6263
17325THY    CA323593   5.189   6.827   2.783 -0.2564 -0.2509 -0.3633
17325THY    HA323594   5.231   6.910   2.839  0.9819 -0.7356 -0.6360
17325THY    CA423595   5.074   6.838   2.707  0.0568 -0.2614 -0.0703
17325THY    HA423596   5.011   6.927   2.706 -0.6051 -1.2582 -0.5396
17325THY    CA523597   5.019   6.734   2.643 -0.3824 -0.0393  0.6576
17325THY    CM123598   4.876   6.747   2.591  0.2803  0.2468  0.3432
17325THY    HM123599   4.880   6.777   2.486  1.7611 -0.7675 -2.9062
17325THY    HM223600   4.816   6.819   2.649 -1.2103  1.2249 -1.5936
17325THY    HM323601   4.816   6.656   2.601 -1.4512 -0.5025  1.3396
17325THY    CA623602   5.078   6.610   2.639  0.0668  0.1852  0.2442
17325THY    HA623603   5.045   6.522   2.585  4.6651 -0.9090 -1.0927
17326THY      O23604   8.753   3.542   6.102  0.4068 -0.0156  0.1184
17326THY     HO23605   8.836   3.538   6.051  0.2507 -0.2161 -1.0558
17326THY    CA123606   8.718   3.668   6.114  0.3237  0.5249 -0.5330
17326THY    CA223607   8.591   3.711   6.108  0.1999  0.6671 -0.5548
17326THY    CP123608   8.473   3.621   6.079 -0.2921  0.1148  0.8133
17326THY    HP123609   8.493   3.559   5.991 -2.3689  0.2516 -0.1243
17326THY    CP223610   8.337   3.692   6.036 -0.9307 -0.2012  0.0688
17326THY    HP223611   8.271   3.609   6.008 -1.0050  0.0395  0.0435
17326THY    HP323612   8.356   3.758   5.951 -1.3240 -1.2557 -1.1268
17326THY    HP423613   8.288   3.740   6.121  0.1896  0.6567 -0.2626
17326THY    CP323614   8.437   3.521   6.191  0.7508  0.2549 -0.3886
17326THY    HP523615   8.404   3.582   6.276 -1.6152 -0.4319 -0.6337
17326THY    HP623616   8.525   3.463   6.223  1.8491  0.9510  1.5695
17326THY    HP723617   8.372   3.441   6.153 -0.4045 -1.6816  1.3787
17326THY    CA323618   8.567   3.852   6.110 -0.3281  0.0284  0.6763
17326THY    HA323619   8.468   3.897   6.109 -0.4842  1.1371  0.3969
17326THY    CA423620   8.674   3.945   6.123  0.2791 -0.4513 -0.0184
17326THY    HA423621   8.657   4.051   6.135 -1.8287 -0.8395 -0.2824
17326THY    CA523622   8.809   3.892   6.118 -0.4115 -0.4584 -0.7744
17326THY    CM123623   8.927   3.981   6.163 -0.0171  0.0456 -0.4132
17326THY    HM123624   8.965   4.027   6.072  0.0540  0.7598  1.0061
17326THY    HM223625   9.013   3.942   6.219  1.8040 -1.3366  1.3596
17326THY    HM323626   8.875   4.060   6.219 -0.3247 -1.9144  0.8481
17326THY    CA623627   8.833   3.753   6.120  0.0027 -0.2543  0.0405
17326THY    HA623628   8.927   3.702   6.142  0.0397 -1.3000 -0.3571
17327THY      O23629   3.678   7.926   3.196 -0.1988 -0.2066  0.3967
17327THY     HO23630   3.745   7.924   3.125 -0.1541 -0.2256  1.6602
17327THY    CA123631   3.736   7.972   3.314  0.1515 -0.1141  0.1419
17327THY    CA223632   3.664   7.975   3.435 -1.8475 -0.3815  0.2726
17327THY    CP123633   3.519   7.943   3.433 -0.2051  0.2196 -0.8480
17327THY    HP123634   3.489   7.914   3.332  0.9298 -0.1157 -0.8970
17327THY    CP223635   3.426   8.060   3.470  0.5592 -0.2287 -0.5185
17327THY    HP223636   3.323   8.031   3.444  0.0358 -0.8301  1.7069
17327THY    HP323637   3.442   8.159   3.426 -2.0637 -1.6282 -0.6233
17327THY    HP423638   3.435   8.082   3.577  2.7187 -0.7761  1.7320
17327THY    CP323639   3.485   7.831   3.528 -0.0254  0.3385 -0.0640
17327THY    HP523640   3.380   7.806   3.504  0.1595 -1.5434  0.7624
17327THY    HP623641   3.489   7.846   3.636  0.3313  0.9486 -3.5695
17327THY    HP723642   3.555   7.749   3.509  0.9576 -1.6684  1.1704
17327THY    CA323643   3.733   7.994   3.554 -0.1271  0.6341  0.0821
17327THY    HA323644   3.678   7.990   3.647  2.1987  2.0617 -0.6408
17327THY    CA423645   3.870   8.018   3.560 -0.1447  0.4231 -0.4000
17327THY    HA423646   3.921   8.050   3.650 -1.1602  1.6247 -1.9883
17327THY    CA523647   3.939   8.026   3.437  0.0367  0.4484  0.2067
17327THY    CM123648   4.090   8.058   3.423 -0.6316  0.3889 -0.4807
17327THY    HM123649   4.154   8.041   3.511 -1.2326  0.6618 -1.4507
17327THY    HM223650   4.093   8.167   3.413 -1.9249  0.2860 -0.4386
17327THY    HM323651   4.137   7.999   3.343 -1.9739 -0.0797 -0.9601
17327THY    CA623652   3.875   7.999   3.317  0.0140 -0.7357 -0.8045
17327THY    HA623653   3.927   7.989   3.222  0.6553 -0.6522  1.2188
17328THY      O23654   3.659   8.103   2.344 -0.2170 -0.4021 -0.0268
17328THY     HO23655   3.669   8.126   2.438 -0.6267 -0.6557  1.2563
17328THY    CA123656   3.782   8.128   2.291  0.7209  0.0330 -0.0276
17328THY    CA223657   3.813   8.128   2.151  0.5522 -0.2450  0.1703
17328THY    CP123658   3.700   8.107   2.047  0.1421 -0.1435 -1.0418
17328THY    HP123659   3.607   8.086   2.100 -1.0227 -2.2432 -1.5020
17328THY    CP223660   3.712   7.983   1.963 -0.1564  0.3247 -0.5198
17328THY    HP223661   3.799   7.986   1.897  1.3505  2.2674 -0.2223
17328THY    HP323662   3.628   7.957   1.896 -1.0494  2.2347 -2.9686
17328THY    HP423663   3.716   7.897   2.031  0.4107  3.0507  1.5506
17328THY    CP323664   3.688   8.233   1.952 -0.1990 -0.6339  0.5426
17328THY    HP523665   3.605   8.219   1.882 -2.3185  1.5112  1.5845
17328THY    HP623666   3.783   8.254   1.902  0.8144  1.3841  0.9814
17328THY    HP723667   3.663   8.320   2.013  2.1618 -0.4185  1.1153
17328THY    CA323668   3.943   8.141   2.110 -0.1110 -0.4617  0.2048
17328THY    HA323669   3.968   8.143   2.005 -0.1786 -0.4774  0.2492
17328THY    CA423670   4.034   8.174   2.209 -0.3010  0.6854  0.0331
17328THY    HA423671   4.137   8.190   2.180  0.0946  1.6144 -0.7048
17328THY    CA523672   4.008   8.187   2.343  0.0080  0.5309 -0.3472
17328THY    CM123673   4.114   8.226   2.441  0.4230 -0.3172  0.0716
17328THY    HM123674   4.189   8.285   2.385  0.2411 -1.2675 -0.5700
17328THY    HM223675   4.152   8.132   2.481  2.8390  1.6377  1.7281
17328THY    HM323676   4.069   8.287   2.520  0.8065  0.5640 -0.7828
17328THY    CA623677   3.880   8.162   2.383 -0.0906 -0.5202  0.1200
17328THY    HA623678   3.858   8.168   2.489 -0.2879 -0.4756 -1.0678
17329THY      O23679   9.111   0.914   5.052 -0.2499  0.3609  0.0793
17329THY     HO23680   9.082   0.833   5.007  1.1974 -0.6075  0.0566
17329THY    CA123681   9.190   0.966   4.951  0.7558 -0.6368 -0.0333
17329THY    CA223682   9.299   1.048   4.980 -0.3702 -0.4311 -0.3230
17329THY    CP123683   9.298   1.118   5.117 -0.1853 -0.0113  0.1207
17329THY    HP123684   9.264   1.047   5.194 -1.7887  0.8472  1.7258
17329THY    CP223685   9.197   1.237   5.119 -0.1280 -0.1972  0.1056
17329THY    HP223686   9.114   1.213   5.051 -0.5576 -0.2398  1.6128
17329THY    HP323687   9.230   1.325   5.063  0.4481 -0.2694 -0.1497
17329THY    HP423688   9.163   1.262   5.220 -1.3565 -0.4772 -0.3629
17329THY    CP323689   9.437   1.167   5.163  0.5112 -0.8250  0.2070
17329THY    HP523690   9.518   1.097   5.142  1.1642 -1.6262  1.1760
17329THY    HP623691   9.423   1.190   5.269  0.0379 -0.8518  0.0601
17329THY    HP723692   9.480   1.259   5.122  0.0086 -0.7575  0.4751
17329THY    CA323693   9.371   1.097   4.867  0.6126  0.2549 -0.0569
17329THY    HA323694   9.438   1.182   4.872  1.2144 -0.5400 -0.4679
17329THY    CA423695   9.352   1.037   4.742 -0.0570  0.1650 -0.2678
17329THY    HA423696   9.404   1.088   4.662 -0.0981  0.0049 -0.4783
17329THY    CA523697   9.250   0.954   4.722 -0.1130  0.8772  0.0794
17329THY    CM123698   9.216   0.890   4.588  0.5450 -0.4050  0.7188
17329THY    HM123699   9.235   0.784   4.604 -2.0925 -0.4600  0.1618
17329THY    HM223700   9.268   0.936   4.503 -0.5371 -1.8406 -0.6069
17329THY    HM323701   9.109   0.888   4.565  0.7328 -1.8911  3.0714
17329THY    CA623702   9.171   0.918   4.825 -0.1511  0.5230 -0.0611
17329THY    HA623703   9.105   0.834   4.804 -0.0589  1.0744 -0.2811
17330THY      O23704   3.976   8.926   3.756 -0.3046  0.1356 -0.2809
17330THY     HO23705   3.937   8.843   3.789  0.1261  0.7449 -0.2460
17330THY    CA123706   3.904   8.967   3.645  0.0752 -1.0459  0.8474
17330THY    CA223707   3.957   9.053   3.548 -0.0078  0.4482 -0.0334
17330THY    CP123708   4.095   9.119   3.554 -0.9213 -0.3266 -0.5602
17330THY    HP123709   4.147   9.078   3.641  0.1331 -1.4933 -1.7895
17330THY    CP223710   4.101   9.271   3.574 -0.3159  0.5957  0.0163
17330THY    HP223711   4.058   9.305   3.669  0.3470  0.5653  0.9880
17330THY    HP323712   4.073   9.330   3.486 -0.2343 -0.8368 -1.9920
17330THY    HP423713   4.207   9.296   3.589  0.1779  1.2274 -2.2374
17330THY    CP323714   4.188   9.079   3.440 -0.4500  1.1405 -0.3778
17330THY    HP523715   4.139   9.109   3.346 -1.7776  0.9753 -2.7908
17330THY    HP623716   4.214   8.972   3.437  0.1399 -3.4688 -0.3119
17330THY    HP723717   4.284   9.130   3.448 -0.5134 -2.3669  0.5673
17330THY    CA323718   3.866   9.083   3.443 -0.1491 -0.0354 -0.3165
17330THY    HA323719   3.898   9.157   3.371  1.1099 -0.3505 -1.1566
17330THY    CA423720   3.737   9.030   3.435 -0.8868 -0.3171  0.4931
17330THY    HA423721   3.670   9.044   3.350 -3.0039  0.7449 -2.1384
17330THY    CA523722   3.692   8.948   3.545  0.5889 -0.7329 -0.0890
17330THY    CM123723   3.548   8.897   3.536  0.1340  0.1148 -0.5297
17330THY    HM123724   3.473   8.977   3.524  1.6648 -0.5650  0.8690
17330THY    HM223725   3.521   8.843   3.627 -1.2711 -0.1362 -0.2957
17330THY    HM323726   3.532   8.839   3.445 -0.5704 -0.4449  0.4968
17330THY    CA623727   3.782   8.908   3.640 -0.0032 -0.3462  0.4966
17330THY    HA623728   3.740   8.853   3.724  2.8787  0.1601 -1.1455
17331THY      O23729   4.771   2.452   7.291  0.2570 -0.1896  0.0629
17331THY     HO23730   4.829   2.507   7.346  1.9025 -1.7699  0.0039
17331THY    CA123731   4.846   2.393   7.194 -0.2518  0.0859 -0.0610
17331THY    CA223732   4.800   2.293   7.094 -0.3728  0.0377 -1.1629
17331THY    CP123733   4.651   2.261   7.085  0.7433  0.1171 -0.2483
17331THY    HP123734   4.595   2.297   7.172 -1.0569 -0.4134 -1.6094
17331THY    CP223735   4.625   2.115   7.089 -0.1522 -0.5287  0.0224
17331THY    HP223736   4.704   2.055   7.043  0.0819 -3.2476  2.2266
17331THY    HP323737   4.528   2.086   7.046  1.0708 -1.9808 -2.1178
17331THY    HP423738   4.619   2.075   7.191  1.4196 -1.4049 -2.6524
17331THY    CP323739   4.596   2.333   6.962  0.3176 -0.4147  0.5468
17331THY    HP523740   4.601   2.442   6.978  0.1901 -3.2142  1.0260
17331THY    HP623741   4.491   2.308   6.948  0.5980 -1.3999 -0.1281
17331THY    HP723742   4.651   2.290   6.878 -0.6465  0.2387 -2.1658
17331THY    CA323743   4.901   2.240   7.012 -0.3880  0.8470 -0.2266
17331THY    HA323744   4.873   2.157   6.946 -0.2221  0.0067  0.3700
17331THY    CA423745   5.041   2.273   7.022 -0.7341  0.2997  0.3715
17331THY    HA423746   5.117   2.233   6.955  0.2551 -0.8955  3.9101
17331THY    CA523747   5.076   2.367   7.113  0.0633 -0.8334 -0.1426
17331THY    CM123748   5.222   2.415   7.122 -0.0135  0.2795 -0.9255
17331THY    HM123749   5.264   2.409   7.021 -0.5371 -0.1750  1.7724
17331THY    HM223750   5.284   2.356   7.190  1.4702  1.8682  2.2123
17331THY    HM323751   5.238   2.515   7.165  2.6455 -1.4027 -0.4993
17331THY    CA623752   4.982   2.426   7.194 -0.6195 -0.7008  1.0512
17331THY    HA623753   5.025   2.491   7.270 -0.7285 -1.2086  1.7341
17332THY      O23754   8.289   7.964   2.602  0.4194  0.4543 -0.1338
17332THY     HO23755   8.247   7.878   2.586 -0.2099 -2.5050  0.6089
17332THY    CA123756   8.365   7.956   2.713  0.2742  0.2968 -0.7094
17332THY    CA223757   8.390   8.069   2.793  0.2870 -0.9534 -0.6231
17332THY    CP123758   8.323   8.202   2.758  0.4175  0.0111  0.0476
17332THY    HP123759   8.281   8.200   2.657  1.5524 -0.5330  1.3781
17332THY    CP223760   8.420   8.326   2.770  0.5787 -0.7571  0.4340
17332THY    HP223761   8.358   8.413   2.744 -0.4244  0.6853  0.1893
17332THY    HP323762   8.512   8.320   2.710  1.7673  0.7904  1.9407
17332THY    HP423763   8.444   8.337   2.877 -0.8997 -0.4187  0.5489
17332THY    CP323764   8.206   8.231   2.852  0.4085 -0.0438  0.6173
17332THY    HP523765   8.154   8.322   2.820 -1.9806 -0.7932 -0.9310
17332THY    HP623766   8.230   8.247   2.958  1.1872  0.2452 -2.0482
17332THY    HP723767   8.126   8.158   2.839  0.2671 -0.1837  0.7941
17332THY    CA323768   8.470   8.051   2.911 -0.0436  0.3490 -0.0098
17332THY    HA323769   8.483   8.139   2.973  0.7198 -1.6235  1.3447
17332THY    CA423770   8.515   7.923   2.949 -0.0742  0.0606  0.0592
17332THY    HA423771   8.578   7.908   3.036  1.1581 -1.0011 -1.1639
17332THY    CA523772   8.511   7.828   2.849  0.1202  0.6210  0.2355
17332THY    CM123773   8.590   7.704   2.862 -0.9354  0.2895  0.6153
17332THY    HM123774   8.693   7.711   2.825 -0.1024  1.9503 -1.5301
17332THY    HM223775   8.540   7.628   2.800 -0.9164  0.3995  0.5140
17332THY    HM323776   8.601   7.651   2.957 -0.8814 -0.6480 -1.1411
17332THY    CA623777   8.419   7.838   2.740  0.2692 -0.0829  0.5359
17332THY    HA623778   8.405   7.750   2.678  2.9473 -0.8106  0.5184
17333THY      O23779   5.200   7.002   3.930  0.4740  0.0849  0.1876
17333THY     HO23780   5.200   7.009   4.027  0.8660  0.2371 -1.4039
17333THY    CA123781   5.331   7.023   3.897  0.5169  0.2928  0.2376
17333THY    CA223782   5.389   7.008   3.770  0.5781 -0.3133 -0.3788
17333THY    CP123783   5.301   6.981   3.649  0.4883  0.2276 -0.0389
17333THY    HP123784   5.198   6.959   3.679  0.0058 -1.0887  0.3307
17333THY    CP223785   5.355   6.861   3.564  0.1406  0.8601  0.2498
17333THY    HP223786   5.452   6.881   3.518 -0.7821 -1.7493 -0.8649
17333THY    HP323787   5.293   6.834   3.478  0.0296  0.3869  1.9442
17333THY    HP423788   5.358   6.774   3.631  0.0457  1.3701  0.6366
17333THY    CP323789   5.282   7.103   3.561 -0.9452 -0.1156  0.5739
17333THY    HP523790   5.232   7.182   3.620 -2.4009 -0.3643 -0.1403
17333THY    HP623791   5.225   7.078   3.471 -0.3915 -0.2246 -0.3330
17333THY    HP723792   5.384   7.131   3.532 -1.4227 -2.0392  0.4607
17333THY    CA323793   5.530   7.024   3.762 -0.4582 -0.3199  0.3883
17333THY    HA323794   5.581   7.009   3.668 -1.6522 -1.4450  2.7822
17333THY    CA423795   5.601   7.046   3.876  0.5090 -0.4821  0.4767
17333THY    HA423796   5.708   7.050   3.861  0.5817 -0.9954 -1.8373
17333THY    CA523797   5.538   7.057   4.007 -1.2405  0.4066  0.0437
17333THY    CM123798   5.617   7.072   4.130 -0.6937 -0.0379  0.3632
17333THY    HM123799   5.607   6.981   4.191 -1.3231 -0.3277  0.2330
17333THY    HM223800   5.584   7.149   4.200  0.4822  0.7274  0.2067
17333THY    HM323801   5.725   7.061   4.114 -0.4488 -0.2609  2.6309
17333THY    CA623802   5.399   7.044   4.013 -0.4779 -0.2183  0.2485
17333THY    HA623803   5.351   7.057   4.109 -1.2469 -0.7517  1.5722
17334THY      O23804   1.022   8.189   4.374 -0.1956  0.5897 -0.4760
17334THY     HO23805   1.095   8.133   4.406  2.1940 -0.8733  1.5998
17334THY    CA123806   1.016   8.166   4.242 -0.2392  0.7049  0.0656
17334THY    CA223807   0.938   8.235   4.153  0.3488 -0.3942  0.1636
17334THY    CP123808   0.861   8.361   4.187 -0.2655 -0.2213 -0.4165
17334THY    HP123809   0.893   8.389   4.288  1.5912 -0.1985 -2.3160
17334THY    CP223810   0.715   8.342   4.194  0.0554  0.1789  0.5210
17334THY    HP223811   0.713   8.236   4.221  1.0594  1.2348  0.7652
17334THY    HP323812   0.674   8.363   4.094  0.6435  0.1731  1.7382
17334THY    HP423813   0.669   8.414   4.263 -1.1218 -1.0811  1.0344
17334THY    CP323814   0.886   8.482   4.096  0.0116  1.0561 -0.3845
17334THY    HP523815   0.819   8.566   4.120  0.9119 -0.4112  0.8161
17334THY    HP623816   0.867   8.455   3.991  3.3731  0.4275 -0.7404
17334THY    HP723817   0.989   8.517   4.112 -0.4751  1.3680  0.9772
17334THY    CA323818   0.931   8.197   4.013  0.1504 -0.1548 -0.7988
17334THY    HA323819   0.852   8.244   3.955 -0.1672  0.7935 -0.1260
17334THY    CA423820   1.013   8.086   3.970  0.4522  0.5646  0.4622
17334THY    HA423821   1.009   8.053   3.867  1.4377  0.9372 -0.9202
17334THY    CA523822   1.108   8.027   4.059  0.5026 -0.7159  0.0884
17334THY    CM123823   1.193   7.910   4.011  0.6655 -0.4302  0.0250
17334THY    HM123824   1.249   7.947   3.925  1.1886  0.3552  1.1284
17334THY    HM223825   1.131   7.825   3.978  1.8346  1.4700 -1.6503
17334THY    HM323826   1.257   7.881   4.095  0.9007  0.9032  3.8318
17334THY    CA623827   1.099   8.060   4.193 -0.2411 -0.0835 -0.4802
17334THY    HA623828   1.155   7.997   4.262  1.7160 -1.6359 -0.5378
17335THY      O23829   8.268   5.961   3.454  0.1562 -0.1097  0.1121
17335THY     HO23830   8.330   6.013   3.401  0.2575 -3.3234 -2.8869
17335THY    CA123831   8.225   6.044   3.554  0.9103  0.5228  0.1230
17335THY    CA223832   8.091   6.050   3.603  0.2309  0.1737 -0.3035
17335THY    CP123833   7.986   5.950   3.554 -0.0792  0.7206  0.0461
17335THY    HP123834   8.036   5.870   3.498  0.9875  1.3154  0.2772
17335THY    CP223835   7.872   6.009   3.472 -0.5779 -0.1397  0.2371
17335THY    HP223836   7.825   5.925   3.419  1.5899 -0.5636 -0.7703
17335THY    HP323837   7.906   6.072   3.388 -0.2278 -2.7620 -3.1721
17335THY    HP423838   7.804   6.062   3.540 -0.5833 -0.1385  0.2287
17335THY    CP323839   7.929   5.886   3.674  0.3013  0.6243 -0.0818
17335THY    HP523840   8.007   5.824   3.722  0.5089 -2.7218 -2.6698
17335THY    HP623841   7.845   5.821   3.648 -0.3344 -0.7530  1.2452
17335THY    HP723842   7.884   5.965   3.736 -0.1393  1.5071 -0.9897
17335THY    CA323843   8.059   6.158   3.693 -0.4952 -0.6711  0.2549
17335THY    HA323844   7.961   6.178   3.734 -0.3128 -0.7810  1.4574
17335THY    CA423845   8.159   6.249   3.720  0.6272 -0.3778 -0.4148
17335THY    HA423846   8.133   6.336   3.780  1.6504 -2.7696  1.6593
17335THY    CA523847   8.286   6.239   3.667 -0.6234 -0.0246  0.3085
17335THY    CM123848   8.391   6.329   3.705 -0.4081 -0.3792  0.0072
17335THY    HM123849   8.356   6.391   3.788 -1.1984 -0.3235 -0.5001
17335THY    HM223850   8.413   6.388   3.615 -0.8060 -0.8426 -0.5282
17335THY    HM323851   8.478   6.274   3.744 -1.3795  1.0086 -0.5839
17335THY    CA623852   8.317   6.131   3.588  0.5011  0.3821 -0.2050
17335THY    HA623853   8.421   6.122   3.556  0.8461  0.5240  2.4332
17336THY      O23854   1.946   0.923   4.190  0.2437  0.2847  0.0732
17336THY     HO23855   1.937   0.929   4.093 -1.5077  0.5160  2.1788
17336THY    CA123856   1.826   0.879   4.237  0.0606  0.3322 -0.3450
17336THY    CA223857   1.799   0.863   4.377  0.4142  0.0827 -0.0651
17336THY    CP123858   1.899   0.905   4.490 -0.2573  0.6683  0.5351
17336THY    HP123859   2.004   0.915   4.460 -0.1806  0.6710 -0.1859
17336THY    CP223860   1.905   0.797   4.600 -0.0363 -0.2467  0.4513
17336THY    HP223861   1.990   0.819   4.665 -1.1650  0.7943  1.9455
17336THY    HP323862   1.905   0.701   4.546 -4.7067  2.9395 -1.7849
17336THY    HP423863   1.810   0.802   4.655 -0.8958 -1.6341  0.0206
17336THY    CP323864   1.856   1.038   4.547 -0.1486  0.0334 -0.4400
17336THY    HP523865   1.936   1.081   4.608 -2.8637  0.7597  4.2852
17336THY    HP623866   1.778   1.024   4.623  1.6775  1.8677 -1.1761
17336THY    HP723867   1.837   1.115   4.472 -0.8990  0.0140 -0.6352
17336THY    CA323868   1.669   0.815   4.413 -0.0700  0.1324  0.6123
17336THY    HA323869   1.640   0.810   4.518 -1.0414 -0.1229  0.6473
17336THY    CA423870   1.579   0.773   4.318  0.2190  0.2848 -0.2710
17336THY    HA423871   1.484   0.731   4.349 -0.0502 -0.0834  0.0709
17336THY    CA523872   1.605   0.790   4.182 -0.2520 -0.0977 -0.3393
17336THY    CM123873   1.510   0.735   4.074  0.1259 -0.3219 -0.1824
17336THY    HM123874   1.406   0.749   4.105  0.0084  0.4524 -2.3371
17336THY    HM223875   1.513   0.629   4.046 -4.4338 -1.4376 -0.2227
17336THY    HM323876   1.523   0.784   3.977  0.6445 -0.6728 -0.9890
17336THY    CA623877   1.732   0.841   4.145 -0.8546  0.2033  0.3269
17336THY    HA623878   1.755   0.833   4.039 -1.7121 -0.0340  0.8595
17337THY      O23879   6.695   8.975   2.550 -0.4989 -0.2765 -0.1917
17337THY     HO23880   6.753   8.902   2.520  0.3070  1.8628 -0.4948
17337THY    CA123881   6.604   8.912   2.625  0.1802  0.5309  0.1463
17337THY    CA223882   6.510   8.967   2.709  0.2913  0.7711 -0.1943
17337THY    CP123883   6.505   9.117   2.719 -0.9374 -0.6841 -0.1388
17337THY    HP123884   6.557   9.168   2.638 -1.8784 -0.6063  1.0027
17337THY    CP223885   6.587   9.171   2.846  0.2199 -0.1445 -0.6143
17337THY    HP223886   6.554   9.135   2.944  1.2257  0.2256 -0.5555
17337THY    HP323887   6.589   9.280   2.842 -0.7662 -0.4598 -0.5998
17337THY    HP423888   6.692   9.139   2.841 -0.2897 -1.3747 -2.2411
17337THY    CP323889   6.364   9.185   2.715  0.0286  0.0994 -0.1066
17337THY    HP523890   6.306   9.177   2.622  0.7708 -0.3329 -0.5911
17337THY    HP623891   6.372   9.294   2.728 -0.7593  1.2330 -0.1716
17337THY    HP723892   6.293   9.150   2.790  1.0599 -0.1987 -3.0906
17337THY    CA323893   6.432   8.887   2.795  0.3735  0.1383 -0.2367
17337THY    HA323894   6.366   8.931   2.869 -0.6009  0.5319 -2.2597
17337THY    CA423895   6.443   8.748   2.788  0.1082 -0.2770  0.2730
17337THY    HA423896   6.387   8.680   2.851 -1.3598  0.5723  2.1827
17337THY    CA523897   6.530   8.692   2.705  0.5511  0.1541 -0.2428
17337THY    CM123898   6.537   8.547   2.689 -0.0721 -0.9427  0.8500
17337THY    HM123899   6.487   8.511   2.598  0.0367 -0.2236 -1.2883
17337THY    HM223900   6.491   8.494   2.773  1.1687 -0.2351  0.8610
17337THY    HM323901   6.640   8.510   2.682 -0.8275 -0.1652 -1.6005
17337THY    CA623902   6.611   8.776   2.623 -0.5117 -0.1164  0.3746
17337THY    HA623903   6.685   8.719   2.568 -0.1843  0.6403  0.0449
17338THY      O23904   3.430   0.883   3.331  0.1462 -0.2598 -1.0757
17338THY     HO23905   3.424   0.933   3.248  2.3173 -0.5122 -1.1478
17338THY    CA123906   3.357   0.951   3.433 -0.1736  0.0793 -0.1561
17338THY    CA223907   3.273   0.873   3.518 -0.4005 -0.1192 -0.4704
17338THY    CP123908   3.256   0.722   3.497 -0.0697 -0.6195  0.5896
17338THY    HP123909   3.307   0.688   3.405  1.6803  0.3321  0.5146
17338THY    CP223910   3.105   0.694   3.462  0.0622 -0.2297 -0.0479
17338THY    HP223911   3.092   0.728   3.359 -0.0138 -0.0921  0.3378
17338THY    HP323912   3.031   0.744   3.524  0.7452 -1.1845  2.2549
17338THY    HP423913   3.084   0.586   3.456 -0.3017 -0.6313  0.0430
17338THY    CP323914   3.297   0.616   3.604  0.5658 -0.1542  0.4621
17338THY    HP523915   3.212   0.602   3.672  1.0456  0.5690  1.0070
17338THY    HP623916   3.381   0.653   3.664 -0.8486  0.5544  2.7507
17338THY    HP723917   3.311   0.520   3.554 -0.7930 -1.3903  0.8668
17338THY    CA323918   3.211   0.940   3.622 -0.3207  0.0062  0.2578
17338THY    HA323919   3.164   0.879   3.699  0.2752 -0.1877 -0.4727
17338THY    CA423920   3.214   1.082   3.626  0.5969 -0.5316 -0.4391
17338THY    HA423921   3.170   1.133   3.711  1.1954 -1.1269  1.1457
17338THY    CA523922   3.292   1.156   3.536  0.7811  0.0083  0.4600
17338THY    CM123923   3.311   1.300   3.542 -0.3400 -0.8015  0.2031
17338THY    HM123924   3.219   1.359   3.553  0.5513 -0.3586  1.5681
17338THY    HM223925   3.351   1.344   3.450  2.3014  0.3174  0.2841
17338THY    HM323926   3.382   1.328   3.620 -0.2012  0.0404 -2.2439
17338THY    CA623927   3.366   1.089   3.439  0.0785 -0.4349  0.0765
17338THY    HA623928   3.431   1.144   3.371  1.9391  1.1049 -0.0912
17339THY      O23929   6.142   8.860   2.644  0.4206 -0.6271 -0.1276
17339THY     HO23930   6.228   8.903   2.630 -0.8310  0.8957  3.2497
17339THY    CA123931   6.154   8.755   2.558 -0.5819  0.6265  0.4646
17339THY    CA223932   6.052   8.660   2.527 -0.0683 -0.1774  0.1208
17339THY    CP123933   5.928   8.665   2.614 -0.1503  0.5094 -0.1867
17339THY    HP123934   5.890   8.767   2.626 -2.2131 -0.2520 -0.8212
17339THY    CP223935   5.952   8.603   2.752  0.1670  0.2963  0.1330
17339THY    HP223936   6.041   8.646   2.799 -0.4413 -0.0764  1.8799
17339THY    HP323937   5.970   8.496   2.739  0.2047  0.6262  0.0994
17339THY    HP423938   5.871   8.617   2.824 -0.5013 -0.4428  0.1192
17339THY    CP323939   5.814   8.593   2.552  0.2658 -0.0026 -0.7835
17339THY    HP523940   5.831   8.488   2.525 -2.1732  1.9155 -1.7901
17339THY    HP623941   5.796   8.641   2.456  0.3815  1.0295  1.4505
17339THY    HP723942   5.724   8.591   2.616  1.4530  1.7848 -3.8531
17339THY    CA323943   6.077   8.573   2.420 -0.4127  0.6269  1.1440
17339THY    HA323944   5.996   8.511   2.382  0.5517  0.2489  0.0618
17339THY    CA423945   6.206   8.571   2.353  0.5594 -0.4252 -0.1436
17339THY    HA423946   6.217   8.503   2.269  1.5439 -0.9412  0.6212
17339THY    CA523947   6.309   8.650   2.398 -0.2841  0.0444  0.2709
17339THY    CM123948   6.446   8.652   2.326  0.3253  0.3565  0.1168
17339THY    HM123949   6.489   8.752   2.320 -1.2268 -1.8789  0.7426
17339THY    HM223950   6.425   8.605   2.228 -0.2943  1.9099 -3.1511
17339THY    HM323951   6.506   8.575   2.376  1.2320 -0.2495  0.4012
17339THY    CA623952   6.278   8.751   2.487 -0.6900 -0.3438  0.5440
17339THY    HA623953   6.363   8.816   2.508  1.4139  0.0844 -2.1556
17340THY      O23954   5.275   0.394   5.198 -0.0533  0.3655 -0.3110
17340THY     HO23955   5.259   0.482   5.159  0.6499  0.3864 -0.1670
17340THY    CA123956   5.188   0.312   5.134 -0.0486  0.2897 -0.1872
17340THY    CA223957   5.234   0.216   5.042  0.0035  0.4292  0.4745
17340THY    CP123958   5.385   0.218   5.008  0.5694  0.3627 -0.5269
17340THY    HP123959   5.447   0.250   5.092 -2.2521  1.7383  1.8464
17340THY    CP223960   5.395   0.319   4.895  0.4696  0.2667  0.7770
17340THY    HP223961   5.502   0.338   4.881  0.9894  1.3010 -1.1319
17340THY    HP323962   5.361   0.412   4.943  2.6910  3.7504 -0.0043
17340THY    HP423963   5.326   0.308   4.811 -1.5618  2.0640 -1.4560
17340THY    CP323964   5.427   0.085   4.951 -0.4383  0.3637  0.4480
17340THY    HP523965   5.397   0.003   5.018  0.1065 -0.8354 -0.7789
17340THY    HP623966   5.537   0.079   4.947 -0.5039 -1.4380 -0.1800
17340THY    HP723967   5.394   0.063   4.849  1.1827  0.2849 -2.0893
17340THY    CA323968   5.136   0.125   4.986 -0.1469 -0.3435  0.0937
17340THY    HA323969   5.161   0.047   4.916  0.6632 -0.2472  0.2597
17340THY    CA423970   5.001   0.138   5.024  0.2578 -0.4082  0.6104
17340THY    HA423971   4.929   0.066   4.986 -0.7244  1.4141  0.5551
17340THY    CA523972   4.962   0.243   5.108 -0.1403  0.3067  1.0983
17340THY    CM123973   4.816   0.262   5.137 -0.0448  0.0810  0.0536
17340THY    HM123974   4.806   0.322   5.228 -0.7487  0.4284 -0.5741
17340THY    HM223975   4.766   0.168   5.161  0.2301 -0.3356 -0.2037
17340THY    HM323976   4.762   0.307   5.053 -1.3027 -0.5345 -2.3969
17340THY    CA623977   5.057   0.325   5.171 -0.2670  0.3085  0.0597
17340THY    HA623978   5.022   0.404   5.237  1.1828  0.5050  0.5775
17341THY      O23979   4.695   8.630   3.176 -0.1839  0.4441 -0.1606
17341THY     HO23980   4.631   8.652   3.106 -0.5188  0.4288 -1.1152
17341THY    CA123981   4.820   8.633   3.120  0.3537  0.0228  0.1831
17341THY    CA223982   4.935   8.638   3.198 -0.3496 -0.3422  0.6633
17341THY    CP123983   4.927   8.654   3.353 -0.1769  0.0146 -0.1040
17341THY    HP123984   4.822   8.679   3.372 -0.4942  0.0845 -1.3782
17341THY    CP223985   5.032   8.748   3.407  0.1505 -0.4275 -0.4888
17341THY    HP223986   5.022   8.841   3.351 -1.0023  1.2984  0.4747
17341THY    HP323987   5.133   8.713   3.384  1.6321  0.0832  3.0778
17341THY    HP423988   5.017   8.772   3.513 -0.0627 -0.6909  0.5638
17341THY    CP323989   4.946   8.520   3.423  0.5852 -0.3835  0.8097
17341THY    HP523990   4.871   8.445   3.394  2.4355  1.1261 -1.8003
17341THY    HP623991   4.933   8.539   3.530 -0.6497 -0.2528 -0.5714
17341THY    HP723992   5.046   8.481   3.400  0.7746  1.3063  0.2285
17341THY    CA323993   5.056   8.641   3.131  0.3601  0.2967 -0.1638
17341THY    HA323994   5.152   8.638   3.183  0.8704 -0.6231 -0.1682
17341THY    CA423995   5.057   8.636   2.993 -0.0646 -0.6283 -0.4601
17341THY    HA423996   5.153   8.646   2.943  0.0175 -0.0176  3.2710
17341THY    CA523997   4.939   8.642   2.915 -0.5163 -0.3195 -0.5760
17341THY    CM123998   4.940   8.645   2.761  0.3228  0.2024 -0.2684
17341THY    HM123999   4.847   8.604   2.722 -0.9667  0.9376  1.7821
17341THY    HM224000   5.028   8.581   2.744  0.3324  1.4606 -0.6254
17341THY    HM324001   4.947   8.748   2.724 -3.3209 -0.5390 -0.1507
17341THY    CA624002   4.823   8.633   2.985 -0.5128 -0.1672  0.3045
17341THY    HA624003   4.728   8.626   2.933 -0.2164 -0.5011 -3.3909
17342THY      O24004   5.207   4.233   5.996  0.3865  0.0127  0.0729
17342THY     HO24005   5.217   4.329   5.988  2.7422  1.4296  0.0260
17342THY    CA124006   5.283   4.189   5.891  0.2632  0.5774  0.4757
17342THY    CA224007   5.291   4.052   5.855 -0.1131  1.0402 -0.5154
17342THY    CP124008   5.226   3.942   5.939 -0.1790 -0.0912 -0.0724
17342THY    HP124009   5.160   3.988   6.013 -1.9188  0.2629 -2.8963
17342THY    CP224010   5.330   3.877   6.033 -0.8440  0.0530 -0.1439
17342THY    HP224011   5.399   3.819   5.970  1.5287  0.4306  2.1045
17342THY    HP324012   5.282   3.812   6.108 -1.4115 -1.4744 -1.5599
17342THY    HP424013   5.389   3.956   6.079  0.0191 -0.7658 -0.2957
17342THY    CP324014   5.154   3.849   5.841  0.4740 -0.2013 -0.1208
17342THY    HP524015   5.226   3.774   5.807 -1.1666 -2.7398 -0.6808
17342THY    HP624016   5.121   3.911   5.757 -1.8329  1.2755  0.7860
17342THY    HP724017   5.072   3.791   5.886  0.1213  0.8461  1.1523
17342THY    CA324018   5.381   4.018   5.749 -0.6079  0.7785 -0.1644
17342THY    HA324019   5.387   3.914   5.718 -2.5169  1.0225 -0.3876
17342THY    CA424020   5.438   4.115   5.667  0.4143  0.6387 -0.3813
17342THY    HA424021   5.487   4.098   5.572 -0.7903 -0.4328  1.6940
17342THY    CA524022   5.430   4.248   5.714 -0.3192 -0.9523  0.1940
17342THY    CM124023   5.471   4.359   5.622  0.5245 -0.2766  0.3317
17342THY    HM124024   5.561   4.407   5.663  0.0720  0.6911  0.3765
17342THY    HM224025   5.392   4.435   5.610  0.7270 -1.9735  0.3042
17342THY    HM324026   5.497   4.314   5.526 -1.7087 -0.7249 -0.1140
17342THY    CA624027   5.348   4.288   5.821 -0.4018  0.2407 -0.6499
17342THY    HA624028   5.331   4.392   5.846  2.3320  1.2273 -0.3541
17343THY      O24029   6.374   6.992   3.997 -0.5408  0.6316 -0.1219
17343THY     HO24030   6.428   6.990   3.917 -1.5027 -0.0472  0.1625
17343THY    CA124031   6.366   6.862   4.038 -0.0174 -0.2812 -0.3869
17343THY    CA224032   6.319   6.831   4.167  0.4370 -0.4566 -0.4720
17343THY    CP124033   6.289   6.942   4.263 -0.3648  0.5266 -0.5278
17343THY    HP124034   6.319   7.040   4.223  2.5366 -0.1627 -1.5852
17343THY    CP224035   6.349   6.932   4.407  0.3716  0.0882 -0.2052
17343THY    HP224036   6.370   6.827   4.429 -2.2918 -0.1798 -0.8451
17343THY    HP324037   6.279   6.981   4.475 -3.5008 -2.0646 -2.2988
17343THY    HP424038   6.446   6.984   4.409  0.2260 -0.4529  0.1036
17343THY    CP324039   6.139   6.950   4.276 -0.6417 -0.1437 -0.1108
17343THY    HP524040   6.091   6.949   4.177  1.4085 -1.3081 -4.2591
17343THY    HP624041   6.124   7.041   4.335  0.9057  0.9968 -0.5475
17343THY    HP724042   6.099   6.864   4.331 -0.0842 -1.0836 -1.0025
17343THY    CA324043   6.303   6.694   4.210  0.1272  0.6922 -0.1239
17343THY    HA324044   6.266   6.666   4.308 -0.3319  0.3045 -0.9202
17343THY    CA424045   6.349   6.598   4.115 -0.3665 -0.4449  0.4552
17343THY    HA424046   6.329   6.494   4.139  3.4553  1.2173 -0.0596
17343THY    CA524047   6.386   6.635   3.986 -0.3388 -0.3198 -0.0062
17343THY    CM124048   6.406   6.525   3.886  0.0398 -0.6160 -0.0166
17343THY    HM124049   6.513   6.508   3.868  0.1716 -0.0104  0.1249
17343THY    HM224050   6.368   6.556   3.788  0.5312 -0.2643  1.8140
17343THY    HM324051   6.353   6.434   3.917 -0.7616 -4.4179 -0.9910
17343THY    CA624052   6.395   6.764   3.950  0.0946  0.2213 -0.6774
17343THY    HA624053   6.425   6.790   3.848  3.4180  1.2526 -0.0203
17344THY      O24054   4.733   6.769   4.602 -0.4476  0.1245  0.0268
17344THY     HO24055   4.770   6.833   4.666 -0.1017  2.3444 -2.2278
17344THY    CA124056   4.828   6.671   4.593  0.2793 -0.4178  0.1535
17344THY    CA224057   4.793   6.542   4.572  0.4598  0.0452 -0.2291
17344THY    CP124058   4.647   6.501   4.559  1.4243 -0.8206  0.3067
17344THY    HP124059   4.590   6.586   4.598 -0.2202 -1.5470 -0.4156
17344THY    CP224060   4.613   6.369   4.627 -0.0095  0.5530 -0.6837
17344THY    HP224061   4.504   6.363   4.631 -0.0965  0.5637  0.5843
17344THY    HP324062   4.649   6.374   4.730  0.7764  0.2821 -0.5668
17344THY    HP424063   4.666   6.282   4.586  3.4296  1.7985  0.6676
17344THY    CP324064   4.616   6.502   4.407  0.0681  0.1286 -0.3067
17344THY    HP524065   4.687   6.436   4.356 -0.4055 -0.6285 -0.2475
17344THY    HP624066   4.629   6.601   4.361  1.8104 -0.5156 -0.7936
17344THY    HP724067   4.513   6.466   4.396 -1.5064  4.2368  2.1922
17344THY    CA324068   4.899   6.444   4.574  0.0371 -0.4736  0.0242
17344THY    HA324069   4.880   6.338   4.557  0.2012 -0.3071 -0.0323
17344THY    CA424070   5.035   6.477   4.598  0.5818 -0.1422  0.7474
17344THY    HA424071   5.118   6.407   4.591  0.7645 -0.6945  1.0085
17344THY    CA524072   5.065   6.615   4.616  0.4924 -0.2899  0.4456
17344THY    CM124073   5.204   6.668   4.632  0.5047  0.5391  0.1109
17344THY    HM124074   5.216   6.766   4.585  1.2580  0.3575 -0.0620
17344THY    HM224075   5.270   6.600   4.576 -2.2313  0.0401 -2.3163
17344THY    HM324076   5.243   6.678   4.734 -0.9186  0.8749  3.7138
17344THY    CA624077   4.965   6.708   4.605  0.2588 -0.4440  0.7981
17344THY    HA624078   4.998   6.811   4.619  3.1427  2.0109 -0.3211
17345THY      O24079   2.211   8.422   2.364  0.0550  0.0241 -0.7254
17345THY     HO24080   2.216   8.371   2.282 -0.1421  0.7898 -2.0215
17345THY    CA124081   2.332   8.476   2.390  0.0082 -0.3600  0.9476
17345THY    CA224082   2.368   8.514   2.519  0.8546  0.2805 -0.0368
17345THY    CP124083   2.265   8.488   2.632 -0.2538 -0.4834 -0.0598
17345THY    HP124084   2.166   8.457   2.594  0.4949 -0.8102 -2.2573
17345THY    CP224085   2.260   8.607   2.737  0.3736 -0.1194  0.2652
17345THY    HP224086   2.340   8.601   2.812 -1.4169  1.9448  0.7645
17345THY    HP324087   2.165   8.603   2.791 -1.5180 -3.2019  0.1133
17345THY    HP424088   2.269   8.701   2.682 -0.1512 -0.4925  0.0998
17345THY    CP324089   2.303   8.371   2.726 -0.4365  0.1380  0.3059
17345THY    HP524090   2.286   8.272   2.683  1.8957  1.1982 -0.6260
17345THY    HP624091   2.242   8.358   2.816 -0.9237  0.1129  2.0869
17345THY    HP724092   2.410   8.368   2.753 -0.5041  0.3306 -1.7677
17345THY    CA324093   2.492   8.585   2.534  0.1338  0.0228  0.1284
17345THY    HA324094   2.530   8.617   2.631  2.4858 -0.4662 -0.9749
17345THY    CA424095   2.579   8.594   2.423 -0.3517  0.3690  0.4162
17345THY    HA424096   2.683   8.619   2.442 -0.1513  1.8203 -1.3641
17345THY    CA524097   2.545   8.542   2.299 -0.0476 -0.1994 -0.0999
17345THY    CM124098   2.653   8.535   2.189 -1.0043 -0.1173  0.5889
17345THY    HM124099   2.670   8.639   2.159  1.5959  0.6964  0.4588
17345THY    HM224100   2.619   8.458   2.118 -3.0548  1.3142  0.0904
17345THY    HM324101   2.751   8.509   2.230 -0.5847  0.5447  2.9665
17345THY    CA624102   2.418   8.485   2.276  0.0720  0.0729 -0.6384
17345THY    HA624103   2.386   8.444   2.181 -0.7865  0.1315 -0.1267
17346THY      O24104   3.628   7.018   4.994  0.4584 -0.2833  0.1374
17346THY     HO24105   3.555   6.976   4.945 -0.3492 -0.4107  1.6125
17346THY    CA124106   3.741   6.951   4.986 -0.5097 -0.4957 -0.8116
17346THY    CA224107   3.851   6.991   5.056 -0.3168 -0.7214  0.0729
17346THY    CP124108   3.840   7.097   5.161 -0.2594 -0.3654 -0.6861
17346THY    HP124109   3.742   7.146   5.157  0.8314 -1.7656  1.5175
17346THY    CP224110   3.930   7.218   5.126  0.8980  0.2710 -0.5265
17346THY    HP224111   3.926   7.243   5.019  0.9319  0.3299 -0.2686
17346THY    HP324112   4.038   7.215   5.145  0.7069  1.6622  0.3999
17346THY    HP424113   3.883   7.308   5.168 -0.4329 -1.6324 -0.2602
17346THY    CP324114   3.867   7.046   5.307 -0.2066 -0.7954 -0.0180
17346THY    HP524115   3.970   7.012   5.323 -0.0240 -1.7392  0.0590
17346THY    HP624116   3.796   6.962   5.314  0.0545  0.8070 -0.1488
17346THY    HP724117   3.826   7.115   5.381  1.3066  0.5222 -0.4615
17346THY    CA324118   3.967   6.922   5.046  0.4272 -0.3339  0.3717
17346THY    HA324119   4.053   6.953   5.105  1.6643 -1.3479 -0.9892
17346THY    CA424120   3.972   6.812   4.963  0.0107  0.2038 -0.5631
17346THY    HA424121   4.066   6.756   4.960  0.5204 -2.2990  0.2929
17346THY    CA524122   3.865   6.778   4.889 -0.2056  0.5423  0.9978
17346THY    CM124123   3.878   6.644   4.816  0.2807  0.2687  0.1805
17346THY    HM124124   3.957   6.578   4.855 -1.0856  1.7238 -0.6721
17346THY    HM224125   3.899   6.664   4.711 -0.4715  0.3912  1.7423
17346THY    HM324126   3.780   6.594   4.820  1.1108  1.7812 -1.4400
17346THY    CA624127   3.744   6.840   4.905 -0.0038 -0.0076 -0.4444
17346THY    HA624128   3.656   6.811   4.849  0.0876  0.2741 -1.2948
17347THY      O24129   2.060   2.119   4.590  0.6629 -0.3504 -0.1936
17347THY     HO24130   2.033   2.058   4.520  0.7069 -0.8493  0.3571
17347THY    CA124131   2.125   2.224   4.541 -0.7859  0.4393  0.5921
17347THY    CA224132   2.223   2.288   4.615  0.1720  0.0014 -0.0194
17347THY    CP124133   2.246   2.276   4.769  0.1936 -0.6371  0.1428
17347THY    HP124134   2.187   2.195   4.814  0.0438  1.3772  1.3021
17347THY    CP224135   2.195   2.388   4.859 -1.1832 -0.1923 -0.0025
17347THY    HP224136   2.234   2.487   4.832 -0.8572 -2.1829 -0.6275
17347THY    HP324137   2.217   2.366   4.964  0.5972 -0.7685 -1.2135
17347THY    HP424138   2.088   2.409   4.847 -0.4874 -3.7727  2.4549
17347THY    CP324139   2.400   2.254   4.803  0.3879 -0.4733 -0.2674
17347THY    HP524140   2.447   2.187   4.730 -0.3521 -1.1369 -0.0758
17347THY    HP624141   2.414   2.216   4.905  0.6269 -0.6119 -0.5497
17347THY    HP724142   2.458   2.347   4.795  0.8368  0.9214 -0.4029
17347THY    CA324143   2.295   2.390   4.550 -0.4813  0.7870  0.5510
17347THY    HA324144   2.376   2.440   4.604  2.3271 -2.8832  0.3537
17347THY    CA424145   2.259   2.429   4.414 -0.5512 -0.3379  0.1940
17347THY    HA424146   2.297   2.519   4.367 -2.7827  2.2706  2.7105
17347THY    CA524147   2.166   2.353   4.347  0.1513 -0.0841  0.1064
17347THY    CM124148   2.115   2.396   4.210 -0.1062  0.3116 -0.4524
17347THY    HM124149   2.052   2.315   4.170 -0.3239  0.4889 -0.3736
17347THY    HM224150   2.197   2.418   4.140  2.1913  1.9414 -3.1878
17347THY    HM324151   2.045   2.480   4.219 -0.8143  1.8819 -1.1697
17347THY    CA624152   2.099   2.253   4.410  0.0450  0.1587 -0.2353
17347THY    HA624153   2.016   2.200   4.364 -0.6618  0.4504  0.5946
17348THY      O24154   2.548   5.260   5.788  0.0563 -0.1598  0.1006
17348THY     HO24155   2.482   5.189   5.796 -1.2361 -0.1234  1.2517
17348THY    CA124156   2.473   5.373   5.776 -0.8898 -0.8117 -0.2508
17348THY    CA224157   2.542   5.492   5.794 -0.3189  0.9451 -0.0930
17348THY    CP124158   2.694   5.490   5.807  0.2895 -0.5398  0.9184
17348THY    HP124159   2.731   5.387   5.822 -0.9208 -0.2093  0.5187
17348THY    CP224160   2.738   5.573   5.933  0.2681  0.0233 -0.0818
17348THY    HP224161   2.678   5.551   6.022 -1.7273 -1.0485  0.6993
17348THY    HP324162   2.737   5.679   5.904  1.0642  1.4202  0.3316
17348THY    HP424163   2.842   5.551   5.958  0.5138  0.3339  1.3296
17348THY    CP324164   2.769   5.539   5.682  0.4210  0.2067 -0.4298
17348THY    HP524165   2.873   5.570   5.697  0.2796 -0.6321  0.4832
17348THY    HP624166   2.723   5.632   5.647  0.1231 -2.4156 -1.4703
17348THY    HP724167   2.761   5.469   5.598  0.9127  0.3049 -0.6013
17348THY    CA324168   2.469   5.609   5.775  0.1559 -0.5078  0.0545
17348THY    HA324169   2.519   5.705   5.779 -1.7815 -2.5302  1.2505
17348THY    CA424170   2.329   5.597   5.758  0.1173 -0.3119  0.0933
17348THY    HA424171   2.277   5.692   5.759  0.9855  0.3685  0.5749
17348THY    CA524172   2.261   5.476   5.753 -0.0300 -0.5380  0.3595
17348THY    CM124173   2.112   5.472   5.758 -0.4633 -0.4493 -0.2273
17348THY    HM124174   2.072   5.569   5.727  0.4566  0.1061  0.3461
17348THY    HM224175   2.080   5.437   5.857  1.1778 -0.5868 -2.3235
17348THY    HM324176   2.075   5.393   5.692 -0.9686  0.8088 -1.0862
17348THY    CA624177   2.336   5.361   5.762  0.1530 -1.2237  0.1883
17348THY    HA624178   2.290   5.263   5.754 -0.9368 -1.2249  0.6783
17349THY      O24179   1.972   8.274   2.599  0.1277  0.3929 -0.4227
17349THY     HO24180   1.940   8.333   2.528  3.3128 -0.1630  0.8451
17349THY    CA124181   1.952   8.331   2.716  0.0625  0.1878  0.8498
17349THY    CA224182   1.949   8.254   2.835  0.1352 -0.2014  0.5371
17349THY    CP124183   1.998   8.115   2.836  0.4308  0.0210  0.3280
17349THY    HP124184   2.074   8.094   2.760  1.5552  2.2187 -5.1323
17349THY    CP224185   1.880   8.023   2.802 -0.1365  0.1230 -0.1875
17349THY    HP224186   1.837   8.048   2.704  0.5909 -0.5789 -1.5770
17349THY    HP324187   1.798   8.046   2.872 -0.5618 -1.0344  2.1325
17349THY    HP424188   1.910   7.918   2.806  0.4044  0.6424 -0.0169
17349THY    CP324189   2.054   8.066   2.970  0.6182  0.2549  0.1933
17349THY    HP524190   2.154   8.107   2.991  0.4684  1.3840 -0.0122
17349THY    HP624191   2.062   7.957   2.957  1.3854  0.6951  0.1872
17349THY    HP724192   1.994   8.085   3.059  2.0192  1.2448  0.1017
17349THY    CA324193   1.907   8.318   2.956 -1.1720  0.5587  0.3846
17349THY    HA324194   1.907   8.267   3.052 -2.7721  1.4430  1.9778
17349THY    CA424195   1.883   8.450   2.954 -0.5696 -0.1307 -1.2352
17349THY    HA424196   1.849   8.505   3.041 -1.1847 -1.6590  0.9868
17349THY    CA524197   1.884   8.527   2.838 -1.0370  0.3086 -0.3096
17349THY    CM124198   1.853   8.676   2.837 -0.2129 -0.1301 -0.1282
17349THY    HM124199   1.884   8.731   2.747  0.9134  0.8134  0.8221
17349THY    HM224200   1.915   8.727   2.912 -0.2394 -0.5534  0.5307
17349THY    HM324201   1.749   8.680   2.869  0.1113  1.0368 -0.7593
17349THY    CA624202   1.916   8.465   2.719  0.4092 -0.3581  0.1066
17349THY    HA624203   1.922   8.519   2.625  0.3977 -1.0978 -1.1312
17350THY      O24204   4.892   4.808   6.681  0.0900  0.3925 -0.2669
17350THY     HO24205   4.943   4.783   6.602 -0.6374  0.4518 -2.1740
17350THY    CA124206   4.845   4.695   6.725 -0.8958  0.2894  0.3358
17350THY    CA224207   4.845   4.662   6.863 -0.4170  0.7598 -0.4542
17350THY    CP124208   4.908   4.761   6.961 -0.4155 -0.3138  0.1900
17350THY    HP124209   4.893   4.868   6.940  1.3002  0.1783  0.5589
17350THY    CP224210   5.061   4.746   6.951 -0.0856  0.2069 -0.2097
17350THY    HP224211   5.116   4.827   7.002 -0.8237 -0.6764  0.8860
17350THY    HP324212   5.099   4.739   6.848  3.2245  1.3848 -1.6308
17350THY    HP424213   5.090   4.650   6.994  0.3574  0.3555 -0.0149
17350THY    CP324214   4.854   4.745   7.106 -0.6399  0.1464  0.0028
17350THY    HP524215   4.745   4.746   7.118 -0.6524  0.0109  0.4150
17350THY    HP624216   4.893   4.820   7.175  0.4998  2.1225 -2.2571
17350THY    HP724217   4.877   4.650   7.156  1.2682 -0.3287  0.1779
17350THY    CA324218   4.811   4.528   6.895  0.5666  0.2096 -0.4630
17350THY    HA324219   4.811   4.494   6.998 -1.7937  0.5070  0.2651
17350THY    CA424220   4.771   4.433   6.790  0.1296 -0.3694 -0.4607
17350THY    HA424221   4.762   4.328   6.814 -0.8099  3.3019  0.3363
17350THY    CA524222   4.776   4.472   6.659 -0.4270  0.1400  0.1739
17350THY    CM124223   4.739   4.382   6.546  0.4613  0.2788  0.6701
17350THY    HM124224   4.826   4.381   6.479  0.4813  0.3085 -0.3064
17350THY    HM224225   4.655   4.424   6.490 -0.3457  0.4990 -0.6215
17350THY    HM324226   4.722   4.277   6.573  2.1362 -0.7201  0.0961
17350THY    CA624227   4.809   4.602   6.633 -0.0798  0.3363 -0.1549
17350THY    HA624228   4.818   4.630   6.529 -1.6215  0.4913  1.0137
17351THY      O24229   4.661   7.344   3.410  0.0923 -0.6716  0.0876
17351THY     HO24230   4.598   7.393   3.354 -1.3415  1.0039  0.2928
17351THY    CA124231   4.590   7.305   3.522  0.2703 -0.4101  0.6407
17351THY    CA224232   4.651   7.264   3.644 -0.0494  0.1135  0.4770
17351THY    CP124233   4.798   7.294   3.674  0.0065 -0.0518 -0.5691
17351THY    HP124234   4.852   7.340   3.591 -0.3187  0.4776  0.8531
17351THY    CP224235   4.879   7.164   3.718  0.2823  0.3235 -0.2251
17351THY    HP224236   4.981   7.192   3.744  0.5651 -1.9956  1.2094
17351THY    HP324237   4.899   7.105   3.628  2.0535 -0.1384  0.9979
17351THY    HP424238   4.816   7.098   3.779 -2.3678 -2.7919 -0.8713
17351THY    CP324239   4.811   7.409   3.785  0.1354  0.1098  0.0469
17351THY    HP524240   4.915   7.414   3.820 -0.2480  1.5074 -1.1024
17351THY    HP624241   4.740   7.375   3.862  1.4880  0.8500 -1.2378
17351THY    HP724242   4.787   7.507   3.741  3.0977  0.1777  0.9163
17351THY    CA324243   4.569   7.222   3.754  0.3259  0.7510  0.2426
17351THY    HA324244   4.610   7.207   3.853 -2.4105  2.2146  1.7881
17351THY    CA424245   4.431   7.205   3.738 -0.5409  0.6112 -0.7098
17351THY    HA424246   4.370   7.180   3.824 -1.0933  0.7456  0.9211
17351THY    CA524247   4.373   7.257   3.618  0.3194 -0.2047  0.3754
17351THY    CM124248   4.218   7.236   3.590 -0.3253 -0.7916 -0.2151
17351THY    HM124249   4.177   7.320   3.532 -1.2087 -0.2157 -0.2367
17351THY    HM224250   4.153   7.218   3.676 -1.3653 -1.7910 -1.4029
17351THY    HM324251   4.206   7.154   3.519  0.2079 -1.3231  0.1523
17351THY    CA624252   4.453   7.302   3.513 -0.0650 -0.0708 -0.2247
17351THY    HA624253   4.412   7.326   3.415  2.1595 -0.9040  0.4499
17352THY      O24254   0.308   1.822   6.090 -0.7348  0.2778  0.1901
17352THY     HO24255   0.257   1.866   6.021 -0.8708  0.1994 -0.0860
17352THY    CA124256   0.332   1.903   6.200 -0.1998 -0.4731  0.8518
17352THY    CA224257   0.410   1.857   6.313 -0.5381  0.8616  0.2430
17352THY    CP124258   0.484   1.723   6.301 -0.4736 -0.1729 -0.5306
17352THY    HP124259   0.484   1.677   6.202 -1.1039 -0.2306 -0.4138
17352THY    CP224260   0.410   1.622   6.394  0.1654 -0.4677  0.8146
17352THY    HP224261   0.304   1.623   6.366 -0.2244  0.9186  0.3894
17352THY    HP324262   0.413   1.646   6.501 -2.3193 -0.2090  0.2425
17352THY    HP424263   0.445   1.519   6.384  0.1886  2.2138  0.4941
17352THY    CP324264   0.629   1.726   6.339  0.1472  0.5592  1.6373
17352THY    HP524265   0.636   1.750   6.446 -1.4209  0.9379  0.6227
17352THY    HP624266   0.684   1.799   6.280  0.5691  0.4599  1.2461
17352THY    HP724267   0.672   1.626   6.323 -0.2947 -1.4040  1.7391
17352THY    CA324268   0.419   1.936   6.422 -0.7369 -0.0638 -0.2833
17352THY    HA324269   0.486   1.906   6.502 -2.8315  2.1687  0.6570
17352THY    CA424270   0.374   2.070   6.415  0.8108  0.7388  0.2047
17352THY    HA424271   0.401   2.137   6.497  1.1813 -0.6786  1.8442
17352THY    CA524272   0.299   2.114   6.301  0.3400 -0.5177 -0.1078
17352THY    CM124273   0.248   2.254   6.308 -1.1275  1.2234 -0.2149
17352THY    HM124274   0.316   2.325   6.259  0.6980 -0.7446 -3.1056
17352THY    HM224275   0.219   2.275   6.412 -1.8578  0.5778  2.2896
17352THY    HM324276   0.156   2.257   6.248 -0.3992 -0.0378 -1.8342
17352THY    CA624277   0.283   2.031   6.194  0.0838 -0.0299 -0.0524
17352THY    HA624278   0.226   2.064   6.108  1.0170 -0.2151  1.1479
17353THY      O24279   1.474   4.106   4.844 -0.3897 -0.4539  0.2926
17353THY     HO24280   1.531   4.135   4.770 -1.3035 -1.4802 -0.4357
17353THY    CA124281   1.355   4.140   4.796  0.0692 -0.5974  0.0892
17353THY    CA224282   1.239   4.099   4.860  0.2834  0.3733  0.6452
17353THY    CP124283   1.244   4.015   4.981  0.2218  0.3691 -0.5175
17353THY    HP124284   1.331   3.949   4.989 -0.1945 -1.6722 -1.3923
17353THY    CP224285   1.135   3.903   4.976 -0.1744  0.2186 -0.3555
17353THY    HP224286   1.035   3.944   4.996 -1.1300  1.5203 -3.0794
17353THY    HP324287   1.161   3.831   5.055  0.6048  0.6913  0.4160
17353THY    HP424288   1.136   3.859   4.876 -2.9514 -0.8692  1.7774
17353THY    CP324289   1.218   4.094   5.109 -0.0728  0.0821 -0.1281
17353THY    HP524290   1.292   4.172   5.126 -0.9921  2.8068  0.2603
17353THY    HP624291   1.232   4.029   5.196 -2.4285 -0.4158 -1.4212
17353THY    HP724292   1.119   4.141   5.103  0.3777 -4.1372  0.6695
17353THY    CA324293   1.114   4.147   4.815 -0.2113  0.0603  0.5713
17353THY    HA324294   1.025   4.132   4.875  0.2639  0.6504  0.0473
17353THY    CA424295   1.120   4.239   4.717  0.4805  0.4406 -0.5002
17353THY    HA424296   1.031   4.292   4.685  1.3246  0.4033  0.9484
17353THY    CA524297   1.234   4.282   4.651  0.6931 -0.5263  0.0942
17353THY    CM124298   1.227   4.387   4.547 -1.0155  0.4510 -0.0047
17353THY    HM124299   1.225   4.339   4.448  3.1065  1.3046 -2.4070
17353THY    HM224300   1.308   4.461   4.555 -0.5345 -0.5519 -0.3983
17353THY    HM324301   1.138   4.450   4.557  0.6953  2.0030  2.3457
17353THY    CA624302   1.350   4.225   4.686 -0.1053 -0.0236 -0.5801
17353THY    HA624303   1.441   4.261   4.641 -0.6696  1.8901  3.9486
17354THY      O24304   9.209   3.319   3.162  0.1580  0.0779  0.3473
17354THY     HO24305   9.153   3.398   3.153 -1.0672 -0.0189 -0.4935
17354THY    CA124306   9.121   3.216   3.151 -0.1983  0.4021 -0.7519
17354THY    CA224307   9.171   3.091   3.105  0.0853  0.5380 -0.0512
17354THY    CP124308   9.328   3.074   3.075 -0.4412 -0.5129  0.3410
17354THY    HP124309   9.365   3.165   3.027  2.1006 -0.2247 -0.4577
17354THY    CP224310   9.356   2.959   2.970  0.2276 -0.3569 -0.7125
17354THY    HP224311   9.334   2.866   3.025 -1.4571  2.0499  0.9704
17354THY    HP324312   9.464   2.959   2.953  0.5745  1.5928  0.0688
17354THY    HP424313   9.297   2.956   2.878 -0.3732  0.0271 -2.2829
17354THY    CP324314   9.424   3.060   3.203  0.0806  0.0671 -0.7040
17354THY    HP524315   9.528   3.064   3.169  0.1038  0.1220  2.7104
17354THY    HP624316   9.395   2.983   3.275 -2.7521 -0.6238 -0.4226
17354THY    HP724317   9.419   3.152   3.263  1.2325  1.8710 -1.7751
17354THY    CA324318   9.083   2.979   3.107 -0.0116  0.2333  0.2247
17354THY    HA324319   9.123   2.882   3.079 -1.3341  0.5322 -0.4266
17354THY    CA424320   8.954   2.996   3.159  0.4429 -0.0924 -0.2989
17354THY    HA424321   8.887   2.910   3.163 -2.0634  0.8133  1.5614
17354THY    CA524322   8.900   3.124   3.177  0.0420 -0.7133  0.0570
17354THY    CM124323   8.753   3.139   3.203  0.9506 -0.0029  0.3351
17354THY    HM124324   8.693   3.128   3.112 -1.6049  1.7500 -1.3997
17354THY    HM224325   8.713   3.229   3.252  0.7512  0.4223  0.0154
17354THY    HM324326   8.736   3.061   3.278 -0.1149  1.5908  1.9935
17354THY    CA624327   8.983   3.236   3.171  0.6013  1.0562 -0.3360
17354THY    HA624328   8.936   3.333   3.185  0.4166 -1.2491 -0.0366
17355THY      O24329   3.030   2.851   5.935 -0.5055 -0.4239 -0.2793
17355THY     HO24330   2.999   2.773   5.983 -3.4436 -0.9750  0.4291
17355THY    CA124331   3.143   2.899   6.003  0.7683  0.0451  0.2648
17355THY    CA224332   3.191   3.033   5.981  0.0708  0.1321  0.4941
17355THY    CP124333   3.109   3.123   5.893 -0.0481 -0.3144  0.0220
17355THY    HP124334   3.006   3.088   5.877 -0.5870 -0.2706  1.5104
17355THY    CP224335   3.174   3.121   5.753  0.3795  0.1959 -0.4790
17355THY    HP224336   3.107   3.174   5.685 -0.6493  0.0417 -1.9403
17355THY    HP324337   3.195   3.020   5.717  0.1808  0.4884 -0.6271
17355THY    HP424338   3.271   3.172   5.750  0.0325  0.3896  0.2108
17355THY    CP324339   3.102   3.275   5.939 -0.1394  0.1302  0.2844
17355THY    HP524340   3.039   3.327   5.865  3.4896 -1.8245  2.2810
17355THY    HP624341   3.204   3.312   5.953  0.6903 -2.4538 -0.7697
17355THY    HP724342   3.062   3.286   6.040 -1.4438 -0.4598  1.2641
17355THY    CA324343   3.316   3.061   6.035  0.1201 -0.0301  0.0399
17355THY    HA324344   3.360   3.158   6.012 -0.7566 -0.3131  0.3790
17355THY    CA424345   3.384   2.968   6.116  0.0146  0.2645  0.1146
17355THY    HA424346   3.476   2.989   6.168  1.1009 -0.8250 -1.6901
17355THY    CA524347   3.319   2.842   6.146  0.1999  0.0714 -0.2925
17355THY    CM124348   3.392   2.741   6.231 -0.0531  0.1899 -0.0958
17355THY    HM124349   3.331   2.718   6.319 -1.1161 -0.4102  0.3010
17355THY    HM224350   3.493   2.777   6.250 -0.2184  1.9617 -0.4891
17355THY    HM324351   3.392   2.648   6.172  0.0155 -2.2967  1.3748
17355THY    CA624352   3.203   2.813   6.087 -0.9777  0.7461  0.9869
17355THY    HA624353   3.177   2.708   6.096 -0.6673  1.5475  0.9723
17356THY      O24354   5.100   6.355   6.626 -0.0787  0.0375 -0.0505
17356THY     HO24355   5.030   6.331   6.689 -0.7653 -1.0017 -0.8862
17356THY    CA124356   5.022   6.378   6.509 -0.5395  0.3829 -0.4920
17356THY    CA224357   5.088   6.390   6.383 -0.6548  0.2730 -0.0002
17356THY    CP124358   5.243   6.378   6.376 -0.0484 -0.1534  0.5526
17356THY    HP124359   5.276   6.324   6.465  0.7473 -0.5087  0.4277
17356THY    CP224360   5.310   6.510   6.366  0.2650 -0.9513  0.2658
17356THY    HP224361   5.280   6.571   6.451  0.4625 -0.8618  0.2388
17356THY    HP324362   5.267   6.571   6.286  0.4754 -1.1010  0.2177
17356THY    HP424363   5.419   6.517   6.363  0.2213 -1.7806  0.7045
17356THY    CP324364   5.280   6.285   6.263 -0.5494 -0.4192  0.8732
17356THY    HP524365   5.263   6.331   6.165  1.9503 -0.9573  0.8065
17356THY    HP624366   5.223   6.191   6.269 -2.5031 -1.0015  1.9674
17356THY    HP724367   5.385   6.254   6.265 -0.8625  0.3948 -0.2404
17356THY    CA324368   5.014   6.403   6.265 -0.0397 -0.0713 -0.3550
17356THY    HA324369   5.057   6.422   6.167 -1.6305 -0.4197  1.8061
17356THY    CA424370   4.880   6.397   6.276 -0.3175  0.1491  0.1930
17356THY    HA424371   4.823   6.405   6.183 -0.4943 -0.3287 -4.2870
17356THY    CA524372   4.815   6.378   6.396 -0.0373  0.2143  0.0226
17356THY    CM124373   4.662   6.356   6.400 -0.1709 -0.0575  0.6602
17356THY    HM124374   4.634   6.275   6.332  1.1985 -0.8917  0.8486
17356THY    HM224375   4.601   6.444   6.382 -0.8058  0.6676  0.3815
17356THY    HM324376   4.641   6.338   6.507  0.2466 -0.3666 -2.1887
17356THY    CA624377   4.886   6.359   6.514  0.3811  0.1372 -0.5318
17356THY    HA624378   4.833   6.325   6.603 -3.3217 -1.8252 -0.3817
17357THY      O24379   8.595   8.268   3.613 -0.2509  1.0790 -0.4360
17357THY     HO24380   8.582   8.360   3.642 -3.0748 -4.4807  1.4069
17357THY    CA124381   8.505   8.252   3.509 -0.0796 -0.3237 -0.3184
17357THY    CA224382   8.472   8.123   3.466  0.0119  0.6095 -1.4346
17357THY    CP124383   8.535   8.008   3.538 -0.1957  0.0430  0.7781
17357THY    HP124384   8.622   8.036   3.599 -0.7603  1.6038 -0.6861
17357THY    CP224385   8.581   7.898   3.429 -0.6721 -0.0970 -0.0453
17357THY    HP224386   8.504   7.878   3.354  0.0203 -0.9498  0.4127
17357THY    HP324387   8.622   7.810   3.480 -1.9616  1.5933  0.2600
17357THY    HP424388   8.671   7.936   3.380 -1.0263 -3.2473 -2.8724
17357THY    CP324389   8.432   7.945   3.627  0.6597  0.5440 -0.4404
17357THY    HP524390   8.330   7.970   3.596  0.8861  0.3589  0.2738
17357THY    HP624391   8.442   7.991   3.726 -0.1781  1.0120 -1.2264
17357THY    HP724392   8.439   7.836   3.634  1.7703 -0.0864 -0.4211
17357THY    CA324393   8.370   8.116   3.372 -0.2764  0.3255 -0.3613
17357THY    HA324394   8.342   8.020   3.329  2.8902  0.3758 -1.4115
17357THY    CA424395   8.324   8.227   3.311  0.0948  0.6198 -0.9110
17357THY    HA424396   8.245   8.214   3.238  1.4734 -0.7908 -1.6183
17357THY    CA524397   8.366   8.356   3.341 -0.8398  0.2500 -0.2685
17357THY    CM124398   8.308   8.471   3.268  0.0589  0.3200  0.2259
17357THY    HM124399   8.300   8.554   3.338  0.5819 -0.6993  1.1534
17357THY    HM224400   8.208   8.451   3.227  0.4723 -0.6968  0.1460
17357THY    HM324401   8.375   8.498   3.186 -0.0403 -0.1198 -0.7946
17357THY    CA624402   8.454   8.373   3.449  0.2879 -1.4638  0.1682
17357THY    HA624403   8.496   8.464   3.490  0.4121  1.2001 -0.9884
17358THY      O24404   0.947   2.327   3.429  0.5310  0.2649 -0.3918
17358THY     HO24405   0.896   2.246   3.447 -0.8794 -0.6417  0.2418
17358THY    CA124406   0.931   2.413   3.539  0.0391  0.1460 -0.0906
17358THY    CA224407   0.948   2.555   3.539 -0.9350  0.3816 -0.6394
17358THY    CP124408   0.984   2.622   3.402  0.0654  0.2083  0.0754
17358THY    HP124409   0.932   2.574   3.318  0.6249 -0.8983  1.3521
17358THY    CP224410   1.125   2.594   3.363 -0.1106  0.8315 -0.1602
17358THY    HP224411   1.195   2.625   3.441  0.6676 -0.0634  0.3917
17358THY    HP324412   1.160   2.660   3.283 -1.4431 -0.3158 -0.8010
17358THY    HP424413   1.149   2.489   3.344  2.9908  0.1796  0.5579
17358THY    CP324414   0.948   2.774   3.395 -0.6251 -0.4657  0.0378
17358THY    HP524415   0.954   2.812   3.292  0.1649 -0.0002  1.2407
17358THY    HP624416   1.026   2.828   3.451  2.7328 -1.7203 -3.0684
17358THY    HP724417   0.847   2.800   3.426  0.0110  3.3423 -1.4357
17358THY    CA324418   0.955   2.629   3.659  0.1771  0.0664  0.5643
17358THY    HA324419   0.995   2.730   3.660  1.4039  2.7701  0.1600
17358THY    CA424420   0.929   2.561   3.781  0.3460  0.1561 -0.3211
17358THY    HA424421   0.935   2.611   3.877  0.8267  0.1282 -0.3269
17358THY    CA524422   0.902   2.422   3.781  0.1739  0.4314 -0.4502
17358THY    CM124423   0.883   2.359   3.915 -0.0949 -0.3091  0.2122
17358THY    HM124424   0.787   2.309   3.931  0.2414 -0.6626 -0.5633
17358THY    HM224425   0.894   2.431   3.996 -0.8740  0.9737 -1.0643
17358THY    HM324426   0.957   2.281   3.936 -2.2496  0.4756 -1.7646
17358THY    CA624427   0.911   2.350   3.662 -0.0315  0.5509  0.8359
17358THY    HA624428   0.918   2.242   3.667 -0.3290 -1.2706  0.7027
17359THY      O24429   8.156   6.950   3.178  0.0983 -0.4483  0.6638
17359THY     HO24430   8.105   6.975   3.100  0.9192 -1.1532  0.1895
17359THY    CA124431   8.108   6.831   3.219 -1.2373 -0.2651  0.6328
17359THY    CA224432   8.144   6.779   3.343 -0.4038  0.2401 -0.0122
17359THY    CP124433   8.263   6.853   3.418  0.8471  0.2665 -0.1382
17359THY    HP124434   8.320   6.904   3.340 -0.7070 -1.1836 -0.5311
17359THY    CP224435   8.366   6.766   3.473  0.3081 -0.1641  1.0463
17359THY    HP224436   8.433   6.729   3.395  0.6842  0.8545 -0.5295
17359THY    HP324437   8.322   6.681   3.527  0.2442  0.1310  1.2662
17359THY    HP424438   8.421   6.809   3.558  0.3879 -0.4432  1.4986
17359THY    CP324439   8.202   6.950   3.523 -0.1747 -0.1033  0.5759
17359THY    HP524440   8.282   7.012   3.566 -1.1224  0.7365  1.2473
17359THY    HP624441   8.132   6.907   3.595 -0.1436 -0.6065 -0.3305
17359THY    HP724442   8.131   7.018   3.474 -2.1922  1.3038 -0.4207
17359THY    CA324443   8.089   6.664   3.387 -0.0061  0.1587  0.2330
17359THY    HA324444   8.123   6.624   3.482  1.4486  1.2998  3.7942
17359THY    CA424445   7.980   6.607   3.317 -0.9662  0.3256  0.4657
17359THY    HA424446   7.938   6.516   3.360  1.3213  0.8816 -0.4095
17359THY    CA524447   7.940   6.658   3.196 -0.6883 -0.1572 -0.8405
17359THY    CM124448   7.840   6.594   3.111  0.7814  0.3336  0.0907
17359THY    HM124449   7.773   6.665   3.062  1.0227  0.5529  0.4718
17359THY    HM224450   7.786   6.522   3.173  0.5731 -0.6387 -0.6103
17359THY    HM324451   7.893   6.521   3.048 -0.0387  0.7661 -0.8855
17359THY    CA624452   8.009   6.770   3.148 -0.3176  0.3187  0.5500
17359THY    HA624453   7.971   6.807   3.053 -0.2498  0.1814  0.2702
17360THY      O24454   6.157   3.753   5.557  0.9538  0.3104  0.6147
17360THY     HO24455   6.169   3.829   5.498  0.1533 -2.4594 -1.2540
17360THY    CA124456   6.027   3.711   5.547 -0.0106 -0.0150 -0.3856
17360THY    CA224457   5.998   3.585   5.487  0.4830  0.5000 -0.7533
17360THY    CP124458   6.104   3.478   5.464 -0.7270  0.1310 -0.1846
17360THY    HP124459   6.203   3.496   5.508 -1.4483  1.5621  0.4953
17360THY    CP224460   6.114   3.472   5.314  0.0700  0.5819 -0.4620
17360THY    HP224461   6.146   3.572   5.281 -2.1967 -1.9242 -0.4539
17360THY    HP324462   6.013   3.461   5.274  0.3920 -0.1957 -0.6477
17360THY    HP424463   6.178   3.388   5.285  3.7080  1.1798  1.8720
17360THY    CP324464   6.066   3.340   5.528 -0.6543 -0.8781  0.3924
17360THY    HP524465   5.998   3.282   5.465  3.2730 -2.3513 -3.1630
17360THY    HP624466   6.033   3.342   5.633  0.6545 -0.4289  3.1696
17360THY    HP724467   6.156   3.278   5.534  0.8618  0.4188  2.5779
17360THY    CA324468   5.857   3.566   5.457  0.1557  0.4617  0.3287
17360THY    HA324469   5.820   3.477   5.405 -1.5072  1.0540  0.6344
17360THY    CA424470   5.762   3.662   5.491 -0.0187 -0.4437 -0.0112
17360THY    HA424471   5.657   3.649   5.465 -0.8940  3.1244 -1.1389
17360THY    CA524472   5.797   3.786   5.545  0.6161  0.1458  0.1110
17360THY    CM124473   5.689   3.889   5.575 -0.6733 -0.3200 -0.3996
17360THY    HM124474   5.624   3.914   5.490  0.0070 -1.0587 -1.0667
17360THY    HM224475   5.730   3.985   5.608 -0.0540 -2.0573 -0.0214
17360THY    HM324476   5.633   3.837   5.653  1.2498  2.0024  0.7883
17360THY    CA624477   5.929   3.805   5.579 -0.3916  0.6419  0.3031
17360THY    HA624478   5.958   3.902   5.620  1.2482  2.0047 -0.7157
17361THY      O24479   1.149   7.286   4.331 -0.4554  0.1958 -0.1367
17361THY     HO24480   1.193   7.208   4.295  1.5073 -0.3777  1.1542
17361THY    CA124481   1.046   7.307   4.249 -0.3382 -0.9801  0.4566
17361THY    CA224482   1.016   7.432   4.202  0.0620  0.6021 -0.6941
17361THY    CP124483   1.099   7.558   4.234  0.3124 -0.4622 -0.3585
17361THY    HP124484   1.091   7.631   4.152  1.7080 -0.6908 -0.4289
17361THY    CP224485   1.249   7.535   4.225 -0.0598  0.0863 -0.9063
17361THY    HP224486   1.301   7.631   4.212  0.2062  0.2042 -1.0346
17361THY    HP324487   1.274   7.476   4.136 -0.2283 -0.8312  0.3402
17361THY    HP424488   1.282   7.484   4.316 -1.5943  0.3037 -1.5739
17361THY    CP324489   1.055   7.631   4.360  0.1082 -0.0491  0.0194
17361THY    HP524490   0.947   7.645   4.355 -0.4581 -1.3162 -3.6322
17361THY    HP624491   1.101   7.730   4.369 -0.5685  0.7593  0.2669
17361THY    HP724492   1.071   7.574   4.453 -0.2674  1.0701  1.6686
17361THY    CA324493   0.895   7.453   4.131 -0.0171 -0.3359 -0.1194
17361THY    HA324494   0.871   7.556   4.105  2.4546  1.7250  1.0932
17361THY    CA424495   0.818   7.345   4.103  0.3389  0.2416 -0.1566
17361THY    HA424496   0.727   7.353   4.045  1.1510 -0.9284  1.0560
17361THY    CA524497   0.851   7.220   4.151 -0.2379  0.8226 -0.0342
17361THY    CM124498   0.759   7.107   4.115 -0.6971  0.0641  0.1937
17361THY    HM124499   0.777   7.016   4.174 -0.9875  0.2411  0.2503
17361THY    HM224500   0.743   7.079   4.010  0.3146  0.4061 -1.8347
17361THY    HM324501   0.655   7.122   4.144 -0.3823  1.4442 -0.2103
17361THY    CA624502   0.962   7.199   4.224  0.7524 -0.0114  0.4299
17361THY    HA624503   0.984   7.097   4.255  2.0048 -1.5683  0.1884
17362THY      O24504   0.744   2.452   1.856  0.4193  0.7932  0.0047
17362THY     HO24505   0.675   2.507   1.816  1.4747  2.0435  2.4096
17362THY    CA124506   0.735   2.455   1.995  0.1239 -0.3054 -0.5536
17362THY    CA224507   0.851   2.468   2.074 -0.4563 -0.1640  0.0922
17362THY    CP124508   0.995   2.462   2.012 -0.1759  0.3045 -0.0156
17362THY    HP124509   1.005   2.378   1.942  0.4311  0.9573 -0.4992
17362THY    CP224510   1.105   2.431   2.112 -0.7781  0.3148 -0.6990
17362THY    HP224511   1.196   2.405   2.057 -0.0961 -1.0695  3.7221
17362THY    HP324512   1.067   2.362   2.189  0.9032  2.9361  1.1199
17362THY    HP424513   1.131   2.522   2.167  1.3928 -0.5284 -0.7515
17362THY    CP324514   1.033   2.596   1.939 -0.1401 -0.5213 -0.5132
17362THY    HP524515   0.960   2.623   1.862  0.6732 -0.9936  0.4000
17362THY    HP624516   1.130   2.596   1.888  0.6471  0.7668  2.5489
17362THY    HP724517   1.040   2.681   2.008  0.4014 -4.1088  2.6082
17362THY    CA324518   0.832   2.491   2.212 -0.1737 -0.0330  0.0284
17362THY    HA324519   0.920   2.493   2.276 -0.6235  0.5806  0.7898
17362THY    CA424520   0.703   2.502   2.271  0.6167  0.3405  0.5543
17362THY    HA424521   0.688   2.497   2.378 -0.5278  0.1237 -2.1239
17362THY    CA524522   0.595   2.500   2.187 -0.4794 -0.4589  0.2115
17362THY    CM124523   0.458   2.508   2.250 -0.0540  0.1266  0.2529
17362THY    HM124524   0.466   2.577   2.335 -2.5839  0.0215  0.7982
17362THY    HM224525   0.439   2.408   2.289  2.8699 -1.9045 -1.2339
17362THY    HM324526   0.380   2.539   2.179  0.4598 -0.2523  0.7051
17362THY    CA624527   0.610   2.478   2.049  0.0867 -0.1226  0.4740
17362THY    HA624528   0.519   2.472   1.991  0.6380 -0.9568  0.0076
17363THY      O24529   1.903   1.596   2.093 -0.3521 -0.2844  0.2936
17363THY     HO24530   1.923   1.540   2.017  2.2852  0.0073  0.7259
17363THY    CA124531   2.007   1.564   2.176  0.2995 -0.0813 -0.1086
17363THY    CA224532   2.038   1.629   2.296  1.0668  0.3415  0.0194
17363THY    CP124533   1.941   1.753   2.337 -0.3416  0.5975 -0.2805
17363THY    HP124534   1.920   1.809   2.245  1.1216  0.1954 -0.3391
17363THY    CP224535   2.014   1.849   2.434  0.1446 -0.0002 -0.2355
17363THY    HP224536   1.948   1.933   2.456  1.6743 -2.9901  1.9152
17363THY    HP324537   2.101   1.891   2.382  0.9518  0.9364 -0.7076
17363THY    HP424538   2.052   1.790   2.518 -0.2299  0.6888  0.4857
17363THY    CP324539   1.816   1.694   2.405 -0.1431 -0.8299 -0.4613
17363THY    HP524540   1.846   1.625   2.485  1.0677 -2.3122 -1.7469
17363THY    HP624541   1.760   1.627   2.338 -0.3541 -0.5117 -0.6050
17363THY    HP724542   1.741   1.768   2.436 -2.9603  0.4426 -3.5589
17363THY    CA324543   2.151   1.590   2.371  0.3406  0.3117 -0.3413
17363THY    HA324544   2.194   1.640   2.458  2.8136 -1.0826  0.0994
17363THY    CA424545   2.223   1.483   2.325 -0.3949  0.3282  0.0607
17363THY    HA424546   2.319   1.457   2.369  0.9200 -2.0921  0.5026
17363THY    CA524547   2.194   1.418   2.205  0.4877 -0.2239  0.3673
17363THY    CM124548   2.284   1.305   2.147 -0.1730 -0.2614 -0.3331
17363THY    HM124549   2.359   1.273   2.221 -1.1670  0.4548 -1.0609
17363THY    HM224550   2.330   1.341   2.054  2.3525  1.2115  0.5469
17363THY    HM324551   2.228   1.215   2.121  0.3782 -2.8036 -0.0058
17363THY    CA624552   2.077   1.449   2.139 -0.8428  0.5706  0.4825
17363THY    HA624553   2.064   1.404   2.041  0.3435  1.1622 -1.2228
17364THY      O24554   1.580   1.711   5.331 -0.2576 -0.0222  0.6088
17364THY     HO24555   1.586   1.780   5.264 -0.8768 -0.5257  0.1833
17364THY    CA124556   1.537   1.768   5.443 -0.0147 -0.0322 -0.7840
17364THY    CA224557   1.523   1.913   5.452  0.3334 -0.5872 -0.0847
17364THY    CP124558   1.583   2.001   5.350 -0.5123 -1.0922 -0.6203
17364THY    HP124559   1.647   1.945   5.281  0.7924  1.0835 -1.9626
17364THY    CP224560   1.672   2.109   5.404 -0.7646  0.3979  0.0188
17364THY    HP224561   1.750   2.058   5.462 -0.6022 -0.1617 -0.3754
17364THY    HP324562   1.624   2.183   5.469 -1.8121  0.4578 -0.6903
17364THY    HP424563   1.704   2.173   5.321 -1.1503  0.9283  0.9243
17364THY    CP324564   1.470   2.062   5.261  0.4726 -0.3585  0.8962
17364THY    HP524565   1.407   1.975   5.236  1.4022 -3.4488  0.9736
17364THY    HP624566   1.508   2.115   5.173 -2.1803 -0.7031  2.4409
17364THY    HP724567   1.408   2.122   5.329 -0.3668  0.3377 -0.7142
17364THY    CA324568   1.455   1.974   5.565 -0.2634  0.6566  0.2137
17364THY    HA324569   1.443   2.082   5.565  2.0306 -2.3039  0.5832
17364THY    CA424570   1.405   1.891   5.665  0.8570  0.3548 -0.0831
17364THY    HA424571   1.342   1.938   5.741  0.6878 -1.3955  2.7234
17364THY    CA524572   1.420   1.752   5.653 -0.0705  0.2275 -0.5157
17364THY    CM124573   1.352   1.667   5.753  0.1202  0.5420 -0.1857
17364THY    HM124574   1.385   1.691   5.855  1.6192  0.3181 -1.1239
17364THY    HM224575   1.377   1.560   5.747  1.3271  0.4817  0.0862
17364THY    HM324576   1.247   1.697   5.750  0.2495 -3.1352  0.3144
17364THY    CA624577   1.483   1.693   5.543  0.3817  0.4173  0.0622
17364THY    HA624578   1.472   1.586   5.537  0.6041 -1.4091  0.1118
17365THY      O24579   2.346   1.594   5.365  0.0227 -0.5257 -0.1626
17365THY     HO24580   2.396   1.655   5.308 -1.4864 -1.7918 -0.0309
17365THY    CA124581   2.214   1.616   5.347 -0.2072  0.3720 -0.2207
17365THY    CA224582   2.111   1.534   5.393  0.9278 -0.4413  0.1283
17365THY    CP124583   2.140   1.394   5.443 -0.1185 -0.6726  0.1898
17365THY    HP124584   2.208   1.344   5.373  1.7183  1.3619 -0.2870
17365THY    CP224585   2.017   1.299   5.455  0.0448 -0.2456  0.6320
17365THY    HP224586   2.049   1.197   5.480 -0.4542  0.0792  0.5501
17365THY    HP324587   1.961   1.283   5.362 -1.1683  0.6876 -0.8343
17365THY    HP424588   1.957   1.324   5.543 -2.1036 -1.5100  0.1688
17365THY    CP324589   2.214   1.392   5.576  0.7336 -0.0608  0.1550
17365THY    HP524590   2.152   1.436   5.655  0.7002 -0.1958  0.3537
17365THY    HP624591   2.304   1.454   5.578  0.1251  0.3201  1.0569
17365THY    HP724592   2.236   1.291   5.611  0.6341  0.6508  0.3740
17365THY    CA324593   1.978   1.587   5.400  0.0433  0.8178 -0.6447
17365THY    HA324594   1.899   1.523   5.437 -2.1143 -1.6948  0.3555
17365THY    CA424595   1.959   1.726   5.365 -0.2897 -0.6007  0.0262
17365THY    HA424596   1.857   1.764   5.361  0.2049 -1.3192  1.3669
17365THY    CA524597   2.061   1.801   5.308  0.8252 -0.2613  0.3325
17365THY    CM124598   2.024   1.943   5.274  0.4527  0.5683  0.5474
17365THY    HM124599   2.062   2.014   5.348  2.3203 -0.1904  0.3933
17365THY    HM224600   1.917   1.954   5.254  0.5410 -0.7635 -0.7312
17365THY    HM324601   2.061   1.966   5.174 -0.7795  0.1677  0.8645
17365THY    CA624602   2.191   1.752   5.301  0.0261 -0.4784 -0.1060
17365THY    HA624603   2.264   1.816   5.253  1.4232  1.7358  0.0618
17366THY      O24604   8.992   2.042   6.465 -0.1652  0.2936  0.2450
17366THY     HO24605   8.984   1.990   6.383  2.2517  1.0630 -1.5169
17366THY    CA124606   8.870   2.033   6.530 -0.1582 -0.0534 -0.4579
17366THY    CA224607   8.852   2.038   6.670 -0.5299 -0.1686 -0.2854
17366THY    CP124608   8.973   2.058   6.762  0.8426 -0.7418 -0.1272
17366THY    HP124609   9.042   2.125   6.708 -2.7597 -4.8312  0.7732
17366THY    CP224610   9.048   1.924   6.775  0.4537 -0.1345 -0.0294
17366THY    HP224611   9.141   1.930   6.831  1.8192 -2.3913  1.9123
17366THY    HP324612   9.089   1.899   6.677  2.8075  0.7371  0.2323
17366THY    HP424613   8.986   1.844   6.816  0.2439 -0.9173 -0.2830
17366THY    CP324614   8.942   2.110   6.907 -0.0349 -0.2385 -0.4282
17366THY    HP524615   8.914   2.023   6.969  1.0098  3.2904  1.5410
17366THY    HP624616   8.853   2.173   6.897 -0.2450  0.7979 -0.5307
17366THY    HP724617   9.033   2.145   6.957  1.5871 -2.5115 -1.2033
17366THY    CA324618   8.720   2.021   6.723 -0.3357 -0.1972  0.2970
17366THY    HA324619   8.716   1.996   6.829  0.4867  0.5359  2.9772
17366THY    CA424620   8.608   2.000   6.638  0.1265  0.6313  1.2841
17366THY    HA424621   8.515   1.974   6.685  0.6411  0.5897 -0.7577
17366THY    CA524622   8.624   1.981   6.499 -0.0894 -0.0395 -0.6556
17366THY    CM124623   8.511   1.944   6.406 -0.8217  0.2952  0.3446
17366THY    HM124624   8.478   2.031   6.348 -1.2335 -0.8787 -0.5692
17366THY    HM224625   8.422   1.911   6.459 -0.9790  0.8520  1.5866
17366THY    HM324626   8.554   1.872   6.335 -2.0648  0.9402 -1.0872
17366THY    CA624627   8.754   2.010   6.451 -0.1258  0.1835 -0.4146
17366THY    HA624628   8.764   2.009   6.342 -2.2740 -0.0565 -1.3189
17367THY      O24629   3.789   4.610   1.780 -0.3116  0.2265  0.2148
17367THY     HO24630   3.805   4.637   1.688  0.5362  0.1229 -0.5877
17367THY    CA124631   3.674   4.671   1.817  0.5174 -0.0533  0.3129
17367THY    CA224632   3.679   4.780   1.899  0.2794 -0.7504 -0.4372
17367THY    CP124633   3.821   4.830   1.945 -0.5914 -0.0692  0.5555
17367THY    HP124634   3.895   4.751   1.960  0.4120 -2.0501  1.0457
17367THY    CP224635   3.820   4.893   2.079  0.3378  0.2041 -0.1050
17367THY    HP224636   3.764   4.837   2.154  0.6993  0.5713  0.0215
17367THY    HP324637   3.761   4.984   2.067  0.7350 -0.6605  0.0523
17367THY    HP424638   3.920   4.923   2.113  2.6770 -2.1395 -4.3174
17367THY    CP324639   3.872   4.929   1.830  0.1126 -0.5507 -0.2278
17367THY    HP524640   3.783   4.980   1.791  0.1597  2.3572  2.3526
17367THY    HP624641   3.923   4.873   1.751  0.0159 -0.5632 -0.2986
17367THY    HP724642   3.930   5.013   1.872 -0.9366 -1.4767  1.0086
17367THY    CA324643   3.558   4.838   1.940 -0.0675 -0.4309  0.2092
17367THY    HA324644   3.549   4.927   2.001 -0.1789  0.6649 -0.5410
17367THY    CA424645   3.443   4.784   1.894 -0.3321 -0.3426  0.0869
17367THY    HA424646   3.347   4.831   1.911 -0.4385 -0.3033 -0.1403
17367THY    CA524647   3.442   4.667   1.814 -0.3821 -0.5995  0.3018
17367THY    CM124648   3.311   4.605   1.775 -0.1323  1.1955  0.3978
17367THY    HM124649   3.265   4.652   1.687  0.3365  0.7106 -0.0300
17367THY    HM224650   3.232   4.612   1.851 -1.9059 -0.3967 -1.0441
17367THY    HM324651   3.315   4.499   1.747  1.3626 -1.2485  1.0126
17367THY    CA624652   3.558   4.615   1.769 -0.3429 -0.1021 -0.4950
17367THY    HA624653   3.561   4.525   1.708 -2.9415 -1.3265  0.1701
17368THY      O24654   6.783   1.304   6.504  0.1052  0.0972  0.2266
17368THY     HO24655   6.788   1.320   6.600  2.7030 -0.0043  0.4718
17368THY    CA124656   6.652   1.275   6.479 -0.0710 -0.5124  0.7305
17368THY    CA224657   6.583   1.316   6.358 -0.2112 -0.3278  0.5779
17368THY    CP124658   6.661   1.396   6.248 -0.0905  0.1707 -0.0088
17368THY    HP124659   6.765   1.419   6.275  0.9408 -2.4422 -1.2933
17368THY    CP224660   6.587   1.523   6.220  0.5332 -0.1136 -0.2829
17368THY    HP224661   6.484   1.510   6.185 -0.6591  2.5831  0.9342
17368THY    HP324662   6.646   1.589   6.155  0.1434 -2.0775 -1.7930
17368THY    HP424663   6.568   1.572   6.317 -0.1740 -0.1037 -0.5574
17368THY    CP324664   6.682   1.321   6.116 -0.4238  0.3868 -0.0857
17368THY    HP524665   6.587   1.273   6.087 -0.2921 -0.1267 -0.0318
17368THY    HP624666   6.760   1.246   6.133 -1.1934 -0.7060 -1.1681
17368THY    HP724667   6.713   1.390   6.037  2.0042  2.6270  1.5869
17368THY    CA324668   6.443   1.283   6.349 -0.3784 -0.3184  0.2213
17368THY    HA324669   6.387   1.296   6.257 -0.9928 -0.1056 -0.8179
17368THY    CA424670   6.378   1.216   6.451  0.3708 -0.4858 -0.0196
17368THY    HA424671   6.271   1.199   6.438 -0.1909  1.8908  1.2237
17368THY    CA524672   6.449   1.174   6.566  1.3150 -0.2976  0.2759
17368THY    CM124673   6.377   1.092   6.682  0.3928 -0.0401 -0.4748
17368THY    HM124674   6.425   1.114   6.778 -1.3608  0.4075  1.7898
17368THY    HM224675   6.382   0.986   6.655 -0.9388 -2.4593  0.0105
17368THY    HM324676   6.274   1.127   6.672  0.6598 -2.6031 -0.1926
17368THY    CA624677   6.579   1.213   6.582  0.0711 -0.6782  0.0761
17368THY    HA624678   6.624   1.178   6.675 -0.1781 -0.4562  0.3305
17369THY      O24679   6.393   1.746   5.620  0.6279 -0.5565  0.0188
17369THY     HO24680   6.484   1.728   5.649 -0.0584  1.6040 -0.2543
17369THY    CA124681   6.368   1.681   5.503 -0.4902  0.0914  0.0564
17369THY    CA224682   6.237   1.656   5.457 -0.2147  0.9250 -0.2203
17369THY    CP124683   6.113   1.704   5.538 -0.0082  0.8288 -0.1552
17369THY    HP124684   6.133   1.736   5.641 -1.4325  1.1576 -0.2992
17369THY    CP224685   6.002   1.594   5.535 -0.3360  0.6377 -0.0874
17369THY    HP224686   5.955   1.581   5.437 -0.0699  0.5547 -0.4369
17369THY    HP324687   5.927   1.628   5.607  0.4380  1.7893 -0.7658
17369THY    HP424688   6.049   1.501   5.568  1.4871  1.7579  1.1554
17369THY    CP324689   6.049   1.826   5.457  0.1361  0.0003 -0.4873
17369THY    HP524690   5.944   1.831   5.488 -0.2389 -1.2534 -0.1761
17369THY    HP624691   6.040   1.810   5.349  0.3084  0.0401 -0.8674
17369THY    HP724692   6.098   1.923   5.472  0.8377  0.4160 -0.8978
17369THY    CA324693   6.221   1.599   5.326 -0.2289  0.9627 -0.4223
17369THY    HA324694   6.121   1.599   5.284 -0.2150  0.9091  0.6694
17369THY    CA424695   6.325   1.558   5.244 -0.6891 -0.0870 -0.1231
17369THY    HA424696   6.309   1.534   5.139 -2.2955  0.3606 -1.1693
17369THY    CA524697   6.459   1.567   5.298 -0.1238 -0.1528 -0.1528
17369THY    CM124698   6.569   1.527   5.213  0.0118 -0.0320  0.0062
17369THY    HM124699   6.664   1.549   5.264  0.4621 -1.2207  0.8521
17369THY    HM224700   6.581   1.587   5.123  1.8572  0.7713  0.9017
17369THY    HM324701   6.549   1.419   5.202 -2.0377 -3.4559  0.5948
17369THY    CA624702   6.482   1.631   5.425 -0.2911 -0.1059  0.2445
17369THY    HA624703   6.585   1.645   5.456 -0.1072  0.2360 -1.5615
17370THY      O24704   6.519   0.578   7.168  0.2963  0.5985 -0.0718
17370THY     HO24705   6.541   0.654   7.111  0.3945 -1.5830 -1.6387
17370THY    CA124706   6.551   0.625   7.290  0.1455  0.2855 -0.3579
17370THY    CA224707   6.476   0.594   7.400 -0.1053  0.2398 -0.0563
17370THY    CP124708   6.346   0.527   7.389 -0.0008  0.0730  0.0807
17370THY    HP124709   6.319   0.502   7.286 -1.6317  0.7370 -1.1042
17370THY    CP224710   6.233   0.600   7.462 -1.0107 -0.1519  0.2061
17370THY    HP224711   6.136   0.557   7.435 -0.4758  0.9165 -1.7663
17370THY    HP324712   6.228   0.706   7.433 -2.9837 -0.1162  0.1620
17370THY    HP424713   6.248   0.619   7.569 -0.5916 -0.4539  1.7564
17370THY    CP324714   6.360   0.383   7.458 -0.1670  0.3711  0.0973
17370THY    HP524715   6.446   0.323   7.426  0.1858 -1.5369  1.5224
17370THY    HP624716   6.265   0.329   7.450 -0.7662 -0.3017  1.2055
17370THY    HP724717   6.371   0.397   7.566 -2.2424  0.7167 -0.5108
17370THY    CA324718   6.517   0.641   7.527  0.0301  0.0300 -0.0056
17370THY    HA324719   6.464   0.598   7.612 -1.8554 -2.0653 -2.1169
17370THY    CA424720   6.632   0.724   7.544  0.0377 -0.6958  0.1932
17370THY    HA424721   6.670   0.753   7.641 -2.4204  0.4603 -0.2385
17370THY    CA524722   6.699   0.764   7.427 -0.2237  0.5682 -0.1656
17370THY    CM124723   6.835   0.827   7.435 -0.2686 -0.2302  0.2210
17370THY    HM124724   6.900   0.792   7.516 -0.3583 -0.6060 -0.8391
17370THY    HM224725   6.830   0.936   7.444 -1.7552 -1.1158  0.2525
17370THY    HM324726   6.895   0.802   7.346  0.9694  0.4331  0.7235
17370THY    CA624727   6.659   0.710   7.303  0.5078 -0.3098 -0.2300
17370THY    HA624728   6.724   0.736   7.220 -0.8427 -0.6920  2.2570
17371THY      O24729   4.230   6.197   2.357 -0.2803 -0.3438  0.5053
17371THY     HO24730   4.209   6.292   2.355 -0.0996 -1.0626  0.5428
17371THY    CA124731   4.107   6.123   2.368  0.5041  0.3880  0.2443
17371THY    CA224732   4.102   5.990   2.329  0.0417  0.1965 -0.0014
17371THY    CP124733   4.236   5.918   2.294 -0.5352 -1.0187  0.0796
17371THY    HP124734   4.330   5.974   2.304  0.7835  0.3924 -2.2057
17371THY    CP224735   4.240   5.850   2.154 -0.1453  0.6192 -0.1326
17371THY    HP224736   4.147   5.794   2.134 -0.9553 -2.2715  1.9762
17371THY    HP324737   4.329   5.788   2.145 -0.5217  2.1143 -0.9380
17371THY    HP424738   4.247   5.925   2.074 -2.9780 -1.5262 -1.9434
17371THY    CP324739   4.245   5.814   2.409 -0.6425  0.7869  0.8747
17371THY    HP524740   4.224   5.859   2.507 -1.8294  0.8542  0.2099
17371THY    HP624741   4.343   5.763   2.409 -0.6270 -3.9018  0.4713
17371THY    HP724742   4.164   5.740   2.401  0.5586 -1.3646 -0.3001
17371THY    CA324743   3.974   5.927   2.304  0.0319 -0.4801 -0.2053
17371THY    HA324744   3.970   5.831   2.255 -1.7146 -0.9216  0.0573
17371THY    CA424745   3.854   6.010   2.324  0.7231 -0.8581 -0.8690
17371THY    HA424746   3.757   5.962   2.310  1.2412 -0.1458 -2.1809
17371THY    CA524747   3.863   6.139   2.372 -0.2983 -0.0042  0.2653
17371THY    CM124748   3.742   6.226   2.407 -0.3742 -0.5740 -0.9745
17371THY    HM124749   3.654   6.173   2.444 -1.0432  1.6408  1.4540
17371THY    HM224750   3.710   6.268   2.310  0.1301 -0.6528 -0.7558
17371THY    HM324751   3.759   6.307   2.479  1.1814  0.8848 -2.5039
17371THY    CA624752   3.990   6.199   2.392  0.5608 -1.0210 -0.1121
17371THY    HA624753   3.992   6.301   2.427  0.1221  0.3414 -0.5527
17372THY      O24754   3.300   8.275   2.393  0.2262 -0.1948 -0.1097
17372THY     HO24755   3.352   8.194   2.385 -0.1573  0.5163 -0.4386
17372THY    CA124756   3.221   8.256   2.501  0.1989 -0.0722 -0.5520
17372THY    CA224757   3.130   8.356   2.545  0.2017  0.1510 -0.0285
17372THY    CP124758   3.106   8.476   2.450  0.4947 -0.3431  0.0720
17372THY    HP124759   3.117   8.435   2.349 -0.0979 -0.8140  1.0454
17372THY    CP224760   3.211   8.586   2.468  0.0542  0.0910  0.2710
17372THY    HP224761   3.222   8.650   2.380 -0.7322 -1.1770 -1.2715
17372THY    HP324762   3.308   8.537   2.480  0.9161 -1.0637  1.6380
17372THY    HP424763   3.206   8.633   2.568 -0.2908  0.3586 -0.3236
17372THY    CP324764   2.963   8.533   2.461 -0.0597 -0.4891 -0.3102
17372THY    HP524765   2.888   8.454   2.451 -0.5944 -3.0982  0.4452
17372THY    HP624766   2.955   8.606   2.379  1.7471 -0.3464  0.0863
17372THY    HP724767   2.957   8.585   2.558 -0.7643  0.1101 -1.4823
17372THY    CA324768   3.045   8.329   2.656  0.1527 -0.1889  0.7033
17372THY    HA324769   2.974   8.400   2.698  0.1820  3.6828 -1.2411
17372THY    CA424770   3.074   8.219   2.737 -0.2137 -0.6881  0.6747
17372THY    HA424771   3.020   8.195   2.828  1.7665 -0.0663 -1.9129
17372THY    CA524772   3.166   8.124   2.696 -0.7284 -1.1095  0.3596
17372THY    CM124773   3.210   8.007   2.782  0.6526 -0.0560 -0.3010
17372THY    HM124774   3.233   7.913   2.730 -1.1646 -0.4724 -0.5427
17372THY    HM224775   3.138   7.984   2.862  0.4115  0.4103  1.8350
17372THY    HM324776   3.303   8.045   2.826  1.2510 -1.7273  0.2486
17372THY    CA624777   3.241   8.146   2.581 -0.3597  0.1971  0.1707
17372THY    HA624778   3.323   8.075   2.569 -1.7938  2.2625 -1.9581
17373THY      O24779   5.619   7.721   6.542  0.3218 -0.4564  0.5180
17373THY     HO24780   5.595   7.785   6.611 -0.5909 -1.2615  1.0760
17373THY    CA124781   5.519   7.737   6.457  0.8175 -0.3459 -0.2359
17373THY    CA224782   5.509   7.659   6.340  1.0592 -0.2192 -0.2876
17373THY    CP124783   5.614   7.553   6.299  0.3080 -0.3735  0.1175
17373THY    HP124784   5.711   7.571   6.347  0.8478 -1.6921  0.8339
17373THY    CP224785   5.651   7.551   6.150  0.0155 -0.5660 -0.6500
17373THY    HP224786   5.641   7.654   6.115 -1.5399  1.2506 -0.1170
17373THY    HP324787   5.593   7.474   6.097 -1.6960 -0.1515  0.3020
17373THY    HP424788   5.758   7.531   6.137  1.2497  1.3783  3.5298
17373THY    CP324789   5.567   7.412   6.345 -0.2711 -1.1697  0.9888
17373THY    HP524790   5.490   7.376   6.276 -0.2274 -1.7785  2.0271
17373THY    HP624791   5.531   7.418   6.449  0.2673 -1.0455  2.4490
17373THY    HP724792   5.648   7.337   6.340 -0.8986 -1.7556  0.3317
17373THY    CA324793   5.406   7.689   6.245  0.8657 -0.3856 -0.6318
17373THY    HA324794   5.404   7.633   6.153  0.2947 -1.0543  0.4477
17373THY    CA424795   5.315   7.796   6.266  0.2111 -0.0635 -0.7251
17373THY    HA424796   5.226   7.819   6.208  0.5382  0.3872  1.9349
17373THY    CA524797   5.320   7.861   6.392  0.0979  0.2394 -0.4899
17373THY    CM124798   5.211   7.954   6.437  0.6022 -0.4027  0.0752
17373THY    HM124799   5.158   7.907   6.520  0.9573  0.5807  1.3470
17373THY    HM224800   5.141   7.980   6.357 -0.0193  0.8466  2.5287
17373THY    HM324801   5.254   8.050   6.467 -1.2436 -2.3761  1.6321
17373THY    CA624802   5.417   7.828   6.484 -1.0553 -0.6587  0.6410
17373THY    HA624803   5.416   7.883   6.577  0.2434  0.2778 -0.8385
17374THY      O24804   9.268   7.604   5.225 -1.0356  0.2814 -0.8377
17374THY     HO24805   9.314   7.633   5.305  2.8967 -1.8584 -0.4632
17374THY    CA124806   9.135   7.626   5.243 -0.1931 -0.1980 -0.8646
17374THY    CA224807   9.046   7.592   5.145  0.4213 -0.2464  0.3349
17374THY    CP124808   9.077   7.484   5.033  0.1795  0.1375 -1.4676
17374THY    HP124809   9.186   7.487   5.017 -0.0541 -1.4542  0.2010
17374THY    CP224810   9.019   7.523   4.896 -0.2339  0.7274 -1.0437
17374THY    HP224811   9.051   7.623   4.863 -3.5151 -1.2774 -0.4889
17374THY    HP324812   8.910   7.533   4.906 -0.0621  0.3235  3.8153
17374THY    HP424813   9.030   7.452   4.813  0.2373  0.2200 -0.3956
17374THY    CP324814   9.030   7.345   5.064  0.0411  0.4049  0.5490
17374THY    HP524815   9.068   7.277   4.987  0.5594  1.2528 -0.1533
17374THY    HP624816   8.921   7.330   5.072 -0.1487 -0.8420  1.1922
17374THY    HP724817   9.053   7.316   5.168 -2.0170  0.5842 -0.6794
17374THY    CA324818   8.914   7.636   5.161  0.3534 -0.4294 -0.1081
17374THY    HA324819   8.840   7.587   5.098  1.8486 -0.7527 -2.1011
17374THY    CA424820   8.873   7.714   5.272  0.1488  0.3681 -0.0345
17374THY    HA424821   8.769   7.738   5.287  0.5437  0.1142  1.9479
17374THY    CA524822   8.964   7.745   5.369 -0.1921  0.6760  0.1068
17374THY    CM124823   8.921   7.826   5.490 -0.0644  0.6719 -0.3697
17374THY    HM124824   8.855   7.767   5.555 -0.1512 -0.1591 -1.2126
17374THY    HM224825   8.858   7.910   5.458 -1.1251  1.4872 -0.8237
17374THY    HM324826   9.007   7.871   5.541 -0.6364  1.2832  0.0580
17374THY    CA624827   9.091   7.697   5.355 -0.1880 -0.0219  0.8425
17374THY    HA624828   9.168   7.723   5.426 -1.5056  2.4555 -1.5617
17375THY      O24829   4.206   4.751   3.763  0.0584 -0.2259  0.0946
17375THY     HO24830   4.295   4.744   3.800  0.3290 -0.7416  0.6831
17375THY    CA124831   4.202   4.875   3.727  0.0032 -0.6166 -0.9621
17375THY    CA224832   4.083   4.942   3.699 -0.5361 -0.0957 -0.3599
17375THY    CP124833   3.951   4.877   3.674  0.6806 -0.6441 -0.2295
17375THY    HP124834   3.955   4.771   3.702 -0.6117 -0.5937 -0.2796
17375THY    CP224835   3.916   4.881   3.525  0.5327 -0.3817  0.6345
17375THY    HP224836   3.821   4.829   3.509  0.0056  4.7428 -0.5954
17375THY    HP324837   4.000   4.845   3.464 -0.2392 -2.8964  2.8188
17375THY    HP424838   3.897   4.983   3.489  2.1672  1.7604  1.7984
17375THY    CP324839   3.837   4.951   3.759  0.2570 -0.3399  0.1356
17375THY    HP524840   3.877   4.949   3.861  0.4843 -0.4344 -0.2053
17375THY    HP624841   3.734   4.916   3.742  0.7217 -1.1367 -0.9057
17375THY    HP724842   3.843   5.056   3.731  0.0694 -0.0854  0.2164
17375THY    CA324843   4.102   5.081   3.672  1.0233  0.1368 -0.2347
17375THY    HA324844   4.014   5.144   3.664 -0.2588  1.4770 -1.7814
17375THY    CA424845   4.221   5.140   3.684  0.8179  1.2764  0.2208
17375THY    HA424846   4.227   5.247   3.671  0.1740 -2.7861 -0.0662
17375THY    CA524847   4.338   5.063   3.698  0.1071  0.5086 -0.1580
17375THY    CM124848   4.463   5.133   3.688  0.1630 -0.3139  1.4643
17375THY    HM124849   4.453   5.236   3.651  0.3237 -1.3952  1.0964
17375THY    HM224850   4.539   5.090   3.622 -0.0340  0.0073  0.6135
17375THY    HM324851   4.501   5.135   3.791 -0.1899 -0.1679  0.6542
17375THY    CA624852   4.326   4.930   3.728 -0.4772 -0.2029 -0.3138
17375THY    HA624853   4.411   4.869   3.757 -2.3621  2.3235 -1.9387
17376THY      O24854   9.085   3.797   2.794  0.0827 -0.2328  0.1208
17376THY     HO24855   9.097   3.884   2.752  2.5263 -0.9623 -0.4829
17376THY    CA124856   9.047   3.822   2.920  0.1545 -0.2713 -0.2218
17376THY    CA224857   8.936   3.763   2.984 -1.1795  0.2313 -0.3882
17376THY    CP124858   8.859   3.658   2.910 -0.6931  0.0332 -0.0582
17376THY    HP124859   8.912   3.643   2.815 -1.3565  0.0360 -2.8271
17376THY    CP224860   8.711   3.693   2.894  0.1583  0.4195 -0.1023
17376THY    HP224861   8.700   3.790   2.846 -1.5435  0.4038 -0.2734
17376THY    HP324862   8.663   3.683   2.992  1.1865  0.8453 -1.1564
17376THY    HP424863   8.662   3.623   2.826  0.7478  0.4633 -0.5677
17376THY    CP324864   8.870   3.525   2.989 -0.0520  0.2155  0.2360
17376THY    HP524865   8.940   3.536   3.073  1.8388 -1.1860 -0.5899
17376THY    HP624866   8.912   3.443   2.931  0.3292 -1.5404  1.6187
17376THY    HP724867   8.776   3.488   3.033 -0.3069 -0.0065  0.6052
17376THY    CA324868   8.900   3.804   3.117  0.8405 -0.1479  0.5634
17376THY    HA324869   8.814   3.754   3.162  0.7531 -0.7046  0.2032
17376THY    CA424870   8.984   3.887   3.180 -1.3375 -0.6418 -0.2364
17376THY    HA424871   8.959   3.926   3.278 -1.0074 -0.2133 -1.0796
17376THY    CA524872   9.098   3.940   3.119 -0.0722 -0.0135  0.0514
17376THY    CM124873   9.174   4.047   3.190 -0.0347  0.1499 -0.2999
17376THY    HM124874   9.110   4.124   3.235  0.1704  1.9457 -1.1053
17376THY    HM224875   9.252   4.081   3.121  0.2049 -0.2393 -1.6049
17376THY    HM324876   9.231   4.005   3.274 -0.6382  0.3303 -0.7696
17376THY    CA624877   9.132   3.905   2.996  0.0114 -0.0205 -0.3353
17376THY    HA624878   9.213   3.960   2.950 -1.5461 -1.0818  1.1839
17377THY      O24879   6.291   5.914   2.517  0.2495 -0.3680  0.1949
17377THY     HO24880   6.251   6.001   2.497 -2.5698 -0.5439 -1.0201
17377THY    CA124881   6.300   5.892   2.645  0.0754  0.3740  0.0168
17377THY    CA224882   6.374   5.786   2.701 -0.1400 -0.0039 -0.2127
17377THY    CP124883   6.456   5.698   2.603 -0.5145  0.3830  0.0516
17377THY    HP124884   6.424   5.715   2.500  0.2142  0.1666  0.1303
17377THY    CP224885   6.445   5.548   2.644 -0.6149  0.3086 -0.1683
17377THY    HP224886   6.521   5.519   2.718 -1.6494  0.9401 -1.3670
17377THY    HP324887   6.452   5.472   2.565 -0.6068  0.6021 -0.4739
17377THY    HP424888   6.343   5.535   2.681 -0.8805  1.0263  3.1519
17377THY    CP324889   6.604   5.732   2.587  0.1411 -0.7742  0.1669
17377THY    HP524890   6.621   5.840   2.580 -4.0969 -2.2514  0.9285
17377THY    HP624891   6.647   5.692   2.494 -0.6241 -0.5053 -1.3398
17377THY    HP724892   6.656   5.708   2.680 -1.8748  0.5485  0.6375
17377THY    CA324893   6.392   5.777   2.838  0.4039 -0.2639  0.2119
17377THY    HA324894   6.454   5.698   2.878 -0.3650  1.2107  0.3274
17377THY    CA424895   6.328   5.867   2.919 -0.6811  0.3199 -0.3056
17377THY    HA424896   6.332   5.847   3.026 -0.1662  0.2595 -0.5553
17377THY    CA524897   6.254   5.974   2.859  0.0843 -0.2496  0.0078
17377THY    CM124898   6.195   6.083   2.942  0.1376 -0.3602 -0.4836
17377THY    HM124899   6.166   6.176   2.893 -1.9162  1.7928  0.1026
17377THY    HM224900   6.256   6.098   3.032 -2.3326  1.5814 -1.3751
17377THY    HM324901   6.101   6.046   2.984 -0.0839 -0.6371 -0.2378
17377THY    CA624902   6.238   5.978   2.727 -0.6090  0.2479 -0.4068
17377THY    HA624903   6.169   6.055   2.695 -2.1335  4.2229  0.1009
17378THY      O24904   3.221   1.255   3.124 -0.1353  0.2608 -0.1762
17378THY     HO24905   3.287   1.295   3.066 -2.2489 -1.1297  1.4821
17378THY    CA124906   3.190   1.362   3.198 -0.3291 -0.0679  0.1783
17378THY    CA224907   3.079   1.352   3.288 -0.3496  0.1503 -0.4202
17378THY    CP124908   3.000   1.226   3.297 -0.5992 -0.2324  0.5684
17378THY    HP124909   3.079   1.150   3.308 -1.0891  0.5929  0.1639
17378THY    CP224910   2.913   1.196   3.171 -1.1391 -0.3685 -0.5798
17378THY    HP224911   2.898   1.089   3.155 -0.1929 -0.4528 -0.7107
17378THY    HP324912   2.964   1.239   3.084 -1.3225  0.8733  2.4392
17378THY    HP424913   2.813   1.241   3.173 -0.6321 -1.2484  0.6444
17378THY    CP324914   2.926   1.200   3.432 -0.0512 -0.5920  1.1033
17378THY    HP524915   2.872   1.105   3.426  0.6959  0.3611  0.5955
17378THY    HP624916   2.853   1.280   3.447 -0.0224  0.5452  0.9285
17378THY    HP724917   2.996   1.210   3.516 -0.7748 -0.1463  2.6689
17378THY    CA324918   3.050   1.468   3.366 -0.6192 -0.5922  0.5350
17378THY    HA324919   2.956   1.472   3.420 -1.0676 -1.3313  0.1041
17378THY    CA424920   3.142   1.573   3.377 -0.1306  0.0678  0.3219
17378THY    HA424921   3.115   1.655   3.443 -2.8493 -2.1761  1.4158
17378THY    CA524922   3.253   1.569   3.295 -0.5156 -0.0514 -0.5071
17378THY    CM124923   3.350   1.687   3.290  0.1809 -0.4005 -0.3235
17378THY    HM124924   3.336   1.746   3.382 -0.2411  0.8011 -2.2194
17378THY    HM224925   3.334   1.742   3.197 -1.4025 -0.5401 -0.9652
17378THY    HM324926   3.447   1.638   3.290 -0.9821 -0.7841 -2.7523
17378THY    CA624927   3.279   1.459   3.204  0.0736 -0.3854 -0.2165
17378THY    HA624928   3.365   1.459   3.138  1.2951  1.1306 -0.7564
17379THY      O24929   6.415   0.280   2.667 -0.4440  0.4107  0.0015
17379THY     HO24930   6.427   0.259   2.762  0.2218 -0.0688 -1.9658
17379THY    CA124931   6.438   0.414   2.650 -0.1847 -0.7190 -0.5900
17379THY    CA224932   6.426   0.474   2.524 -0.0357 -0.3036 -0.5182
17379THY    CP124933   6.390   0.390   2.403  0.1753 -0.3477  0.8042
17379THY    HP124934   6.352   0.292   2.431  1.2943  2.0921  0.9837
17379THY    CP224935   6.515   0.370   2.317  0.5258 -0.4312  0.1550
17379THY    HP224936   6.528   0.458   2.253 -0.5466 -0.7797  0.0788
17379THY    HP324937   6.493   0.295   2.239 -3.2522  0.9274 -0.3843
17379THY    HP424938   6.601   0.342   2.378  1.0132 -1.9878 -2.0136
17379THY    CP324939   6.278   0.459   2.329  0.2726  0.5847  0.8328
17379THY    HP524940   6.317   0.537   2.262 -2.7372 -2.7904 -0.2739
17379THY    HP624941   6.203   0.504   2.394 -3.0523 -2.3175 -0.0837
17379THY    HP724942   6.221   0.391   2.265  1.3953  0.5277 -0.0861
17379THY    CA324943   6.448   0.614   2.507 -0.2351  0.1619  0.6983
17379THY    HA324944   6.421   0.663   2.414 -2.6821 -0.1257 -1.0345
17379THY    CA424945   6.475   0.693   2.622  0.4597 -0.3161 -0.9958
17379THY    HA424946   6.477   0.802   2.615  1.2285 -2.9554 -1.1052
17379THY    CA524947   6.478   0.626   2.749 -0.6217  0.3008 -0.4799
17379THY    CM124948   6.510   0.706   2.871  0.6947  0.7524  0.2306
17379THY    HM124949   6.422   0.770   2.886  0.8592 -0.7374  0.8413
17379THY    HM224950   6.602   0.765   2.871  0.7101 -0.7484  0.2424
17379THY    HM324951   6.518   0.642   2.960 -0.1957  0.7973  0.1612
17379THY    CA624952   6.462   0.490   2.761  0.1433 -0.0437 -0.0077
17379THY    HA624953   6.479   0.444   2.859 -2.1241  1.3700  1.9397
17380THY      O24954   2.678   3.205   5.900  0.0770  0.2925  0.4411
17380THY     HO24955   2.672   3.127   5.842  0.7308  0.5454  0.1946
17380THY    CA124956   2.730   3.298   5.818  0.1842 -0.3868  0.2093
17380THY    CA224957   2.728   3.431   5.860 -0.3064 -0.2852  0.3341
17380THY    CP124958   2.656   3.469   5.989  0.2453 -0.8029  0.1511
17380THY    HP124959   2.670   3.401   6.073 -1.6778  0.2135  0.9364
17380THY    CP224960   2.505   3.476   5.977 -0.4737 -0.0747 -0.0695
17380THY    HP224961   2.468   3.497   6.078  1.3837  0.8640 -1.0520
17380THY    HP324962   2.481   3.375   5.941 -2.2239 -1.7209  0.8785
17380THY    HP424963   2.490   3.549   5.897  1.7995  0.2859  0.8820
17380THY    CP324964   2.697   3.602   6.048 -0.7340 -0.1584  0.3073
17380THY    HP524965   2.804   3.601   6.069 -0.5028 -1.3096 -0.2993
17380THY    HP624966   2.640   3.617   6.140 -0.4406 -0.0460  0.7623
17380THY    HP724967   2.679   3.687   5.981 -0.9976 -0.9251 -0.3367
17380THY    CA324968   2.779   3.539   5.776 -0.1733 -0.0270  0.2658
17380THY    HA324969   2.784   3.645   5.800 -1.3638  0.0434  0.3150
17380THY    CA424970   2.838   3.496   5.657 -0.3107 -0.4502  0.0428
17380THY    HA424971   2.892   3.565   5.593 -1.9260 -3.6046 -1.4149
17380THY    CA524972   2.840   3.360   5.621 -0.3744  0.5372  0.1367
17380THY    CM124973   2.894   3.311   5.489  0.2687  0.0158  0.0478
17380THY    HM124974   2.909   3.203   5.480  0.7674  1.9023 -0.0775
17380THY    HM224975   2.992   3.361   5.485  0.2317 -3.7107  0.0994
17380THY    HM324976   2.835   3.346   5.404  0.1103  0.1172  0.0248
17380THY    CA624977   2.784   3.260   5.702  0.6432  0.8150  0.1176
17380THY    HA624978   2.775   3.157   5.671 -0.6513 -0.8581  0.6892
17381THY      O24979   8.040   7.202   5.349  0.1996  0.4623  0.0227
17381THY     HO24980   8.028   7.106   5.358  0.5246 -0.7331 -0.1449
17381THY    CA124981   7.973   7.230   5.238 -0.0353 -0.3312  0.7540
17381THY    CA224982   7.888   7.346   5.231 -0.3973  0.4948 -0.1787
17381THY    CP124983   7.884   7.441   5.346 -0.4267 -0.5147  0.5259
17381THY    HP124984   7.916   7.394   5.440  0.4628  1.3770  4.5382
17381THY    CP224985   7.751   7.500   5.374  0.0377 -0.1775  1.0822
17381THY    HP224986   7.679   7.419   5.361  0.2660  2.0046  0.4459
17381THY    HP324987   7.733   7.584   5.307 -1.0968 -4.2137 -2.0742
17381THY    HP424988   7.737   7.543   5.474 -1.3828  1.3524 -2.5450
17381THY    CP324989   7.985   7.547   5.324  0.1022 -0.2313  0.2523
17381THY    HP524990   8.085   7.504   5.308  0.7455  2.5747  0.5090
17381THY    HP624991   8.001   7.609   5.413  0.4746  0.4349 -0.7701
17381THY    HP724992   7.965   7.593   5.226  0.2713 -0.7323 -0.7101
17381THY    CA324993   7.833   7.381   5.101 -0.8648  0.9933  0.6234
17381THY    HA324994   7.776   7.473   5.087  0.1435 -0.6862  1.0355
17381THY    CA424995   7.854   7.292   4.993  0.0097  0.0463 -0.2109
17381THY    HA424996   7.803   7.315   4.900 -1.0994  0.7413  0.2171
17381THY    CA524997   7.947   7.190   5.004 -0.2825 -0.3564  0.0309
17381THY    CM124998   7.994   7.116   4.884  0.7943 -0.2060 -0.3914
17381THY    HM124999   8.103   7.105   4.883  0.7752 -0.2588 -0.5895
17381THY    HM225000   7.976   7.152   4.783 -0.4654  0.4417  0.8878
17381THY    HM325001   7.955   7.013   4.881  0.4526 -0.4302 -0.2557
17381THY    CA625002   8.009   7.156   5.127  0.2094  0.1462 -0.4637
17381THY    HA625003   8.080   7.075   5.119 -0.3821 -3.3477 -0.8070
17382THY      O25004   1.935   2.091   6.324  0.3196 -0.7730  0.6598
17382THY     HO25005   1.881   2.013   6.302 -1.2593  1.8281  0.8884
17382THY    CA125006   2.054   2.048   6.372 -0.4133 -0.2479 -0.1629
17382THY    CA225007   2.159   2.136   6.418  0.0933  0.1756  0.3843
17382THY    CP125008   2.142   2.285   6.417  0.3013 -0.1331 -0.4971
17382THY    HP125009   2.056   2.305   6.352 -0.4342  0.7551 -0.7450
17382THY    CP225010   2.261   2.358   6.364 -0.4633  0.1033  0.4538
17382THY    HP225011   2.352   2.359   6.425  0.1863 -0.8241 -0.4004
17382THY    HP325012   2.238   2.464   6.351 -2.6451 -0.7316 -0.0715
17382THY    HP425013   2.279   2.313   6.266 -2.4887  0.2396 -0.7724
17382THY    CP325014   2.118   2.331   6.562 -0.2208  0.1286  0.7243
17382THY    HP525015   2.212   2.320   6.618 -0.1973 -0.3441 -2.4020
17382THY    HP625016   2.048   2.258   6.603 -0.1179 -2.1968 -0.7953
17382THY    HP725017   2.084   2.435   6.566  0.2988  3.4445  0.8531
17382THY    CA325018   2.284   2.079   6.466 -0.2414 -0.0484  0.5040
17382THY    HA325019   2.369   2.145   6.482  0.5975  0.6587 -0.7156
17382THY    CA425020   2.292   1.944   6.479 -0.5397  0.3473  0.7371
17382THY    HA425021   2.379   1.892   6.520 -0.0967 -1.7069 -0.2465
17382THY    CA525022   2.187   1.854   6.443  1.0030  1.1547 -0.2827
17382THY    CM125023   2.197   1.705   6.448  0.3637 -0.5352 -0.0091
17382THY    HM125024   2.302   1.674   6.444  1.6252  1.7506  3.4371
17382THY    HM225025   2.150   1.663   6.358  4.2590 -2.4617 -0.6747
17382THY    HM325026   2.155   1.653   6.535  1.3481 -0.2423 -0.3302
17382THY    CA625027   2.067   1.908   6.389 -0.1397 -0.4804 -0.3176
17382THY    HA625028   1.989   1.845   6.346 -1.0435  0.3963  0.1770
17383THY      O25029   5.823   4.508   4.714  0.0088 -0.5591  0.0159
17383THY     HO25030   5.749   4.509   4.776  0.0865 -0.3515 -2.2645
17383THY    CA125031   5.808   4.379   4.672  0.4902  0.1244  0.3262
17383THY    CA225032   5.912   4.299   4.622 -0.4788 -0.1899 -1.7406
17383THY    CP125033   6.053   4.363   4.613  0.4202 -0.1154  0.5308
17383THY    HP125034   6.053   4.469   4.640 -2.2232  2.7773 -0.0472
17383THY    CP225035   6.117   4.359   4.470 -0.2641  0.2740 -0.1756
17383THY    HP225036   6.222   4.388   4.477  0.0814  1.6281 -1.6254
17383THY    HP325037   6.065   4.410   4.388  0.1067  0.9336  1.3161
17383THY    HP425038   6.122   4.254   4.440 -0.7410  0.5463 -0.2794
17383THY    CP325039   6.145   4.285   4.718  0.8375  0.6693  0.6446
17383THY    HP525040   6.115   4.306   4.821 -0.1414  0.2539  1.4436
17383THY    HP625041   6.247   4.325   4.720  0.5867  0.8713  1.2990
17383THY    HP725042   6.140   4.176   4.711  1.0999  1.0506  0.6066
17383THY    CA325043   5.894   4.167   4.587  0.0899 -0.5322 -0.3378
17383THY    HA325044   5.972   4.105   4.543  0.3198  0.0887 -0.5022
17383THY    CA425045   5.765   4.114   4.607 -0.3086  0.3593 -0.0659
17383THY    HA425046   5.737   4.015   4.570  3.6804 -1.5083 -0.6942
17383THY    CA525047   5.662   4.188   4.662 -0.5178 -0.6796 -0.1807
17383THY    CM125048   5.524   4.143   4.678 -0.1282 -0.4006  0.4619
17383THY    HM125049   5.497   4.160   4.783 -0.3972  0.0581 -2.2684
17383THY    HM225050   5.523   4.034   4.663 -1.6626 -2.1793  0.6739
17383THY    HM325051   5.444   4.184   4.616 -2.0832  0.9851 -1.0145
17383THY    CA625052   5.687   4.321   4.696 -0.3072  0.3711  0.3645
17383THY    HA625053   5.601   4.376   4.733 -1.4024 -0.7241 -0.5537
17384THY      O25054   9.089   6.606   5.662 -0.2570 -0.1766  0.0333
17384THY     HO25055   9.076   6.512   5.640 -2.4460 -1.3150  0.5191
17384THY    CA125056   9.059   6.679   5.552 -0.3307 -0.5416 -0.1538
17384THY    CA225057   9.103   6.815   5.536 -0.4092 -0.0741  0.3119
17384THY    CP125058   9.141   6.898   5.661 -0.0459  0.4536  0.6933
17384THY    HP125059   9.147   6.843   5.756  0.9879  0.5321  0.9157
17384THY    CP225060   9.041   7.012   5.677  0.2122 -0.8187 -1.0178
17384THY    HP225061   8.937   6.977   5.688 -0.9718 -1.0160  2.1335
17384THY    HP325062   9.028   7.070   5.586 -0.6681 -0.3126 -0.3965
17384THY    HP425063   9.073   7.070   5.764 -1.2081 -0.6267 -0.4792
17384THY    CP325064   9.285   6.958   5.652  0.0088 -0.3371  0.0052
17384THY    HP525065   9.364   6.886   5.626  1.4203  1.0848  0.9831
17384THY    HP625066   9.317   6.999   5.749  1.0983  0.3389 -2.2803
17384THY    HP725067   9.285   7.046   5.586  0.3890  0.9308  0.9908
17384THY    CA325068   9.108   6.880   5.410  0.1533 -1.0441 -0.1179
17384THY    HA325069   9.130   6.986   5.404 -1.2705 -1.9237  0.1560
17384THY    CA425070   9.058   6.812   5.303 -0.4426 -0.2117 -0.4951
17384THY    HA425071   9.040   6.868   5.211 -1.7898  1.4540  2.0239
17384THY    CA525072   9.005   6.681   5.320  0.3402  0.1057  0.0338
17384THY    CM125073   8.951   6.609   5.193  0.4406 -0.1376 -0.0476
17384THY    HM125074   8.983   6.646   5.096  3.1402  0.8755  0.4740
17384THY    HM225075   8.842   6.619   5.183  0.3507  0.2367 -0.5693
17384THY    HM325076   8.977   6.503   5.198 -0.4696 -1.8772 -0.3889
17384THY    CA625077   9.006   6.615   5.443  0.0500 -0.2008  0.2100
17384THY    HA625078   8.979   6.510   5.450  1.3458  1.1154 -0.0765
17385THY      O25079   3.764   7.914   4.306 -0.0604  0.4678  0.7223
17385THY     HO25080   3.742   7.821   4.320  1.1829  1.9653  0.6163
17385THY    CA125081   3.861   7.934   4.393  0.3421 -1.0327 -0.4926
17385THY    CA225082   3.942   8.044   4.386  0.0399  0.0425 -0.9664
17385THY    CP125083   3.915   8.152   4.286  0.0793  0.2221 -0.9593
17385THY    HP125084   3.831   8.129   4.220  0.3111 -1.6435  2.7660
17385THY    CP225085   4.026   8.165   4.187 -0.7222  0.2748 -0.3751
17385THY    HP225086   4.046   8.066   4.146 -0.2099  0.4493 -0.3535
17385THY    HP325087   4.120   8.194   4.236 -0.8062  0.7494 -0.8856
17385THY    HP425088   4.002   8.236   4.107 -1.4456  0.3024 -0.5824
17385THY    CP325089   3.886   8.287   4.355 -0.0417  0.1048  0.0680
17385THY    HP525090   3.864   8.357   4.273 -1.8474  0.4238 -0.0684
17385THY    HP625091   3.974   8.321   4.410  0.0835  0.9019 -1.4714
17385THY    HP725092   3.804   8.269   4.425  0.3042  0.3286 -0.6636
17385THY    CA325093   4.052   8.052   4.475  0.0295  0.2870 -0.2319
17385THY    HA325094   4.121   8.136   4.475 -0.5537 -0.0136  0.2540
17385THY    CA425095   4.093   7.940   4.553  0.3997  0.5886  0.1501
17385THY    HA425096   4.188   7.936   4.606  0.7967 -0.1510 -1.4371
17385THY    CA525097   4.016   7.822   4.546 -0.1715 -0.5083  0.1972
17385THY    CM125098   4.054   7.695   4.614  0.0567  0.4293  0.1762
17385THY    HM125099   4.154   7.684   4.657  0.4237 -0.7178 -1.4013
17385THY    HM225100   4.059   7.615   4.539  1.0009  1.6198 -0.9190
17385THY    HM325101   3.978   7.659   4.685  0.0480  0.3181 -0.0291
17385THY    CA625102   3.903   7.826   4.465 -0.2094  0.1117  0.1151
17385THY    HA625103   3.850   7.731   4.461  0.4030 -2.0903 -0.1913
17386THY      O25104   2.171   4.973   2.095 -0.3046  0.0722  0.5092
17386THY     HO25105   2.255   4.960   2.047 -1.1254 -1.3162  0.0433
17386THY    CA125106   2.075   4.931   2.017  0.2097 -0.1209  0.7146
17386THY    CA225107   1.966   4.865   2.075  0.3918 -0.1275  0.2706
17386THY    CP125108   1.945   4.876   2.229 -0.5453 -0.2490 -0.7284
17386THY    HP125109   1.976   4.977   2.259 -0.0758 -0.1201 -0.9120
17386THY    CP225110   2.013   4.762   2.302 -0.0962 -0.6705  0.0371
17386THY    HP225111   2.117   4.740   2.272 -0.6303 -1.1099 -2.1163
17386THY    HP325112   1.948   4.675   2.288 -2.1910  1.1503  1.2114
17386THY    HP425113   2.006   4.769   2.411  0.1070 -0.5246 -1.5506
17386THY    CP325114   1.797   4.880   2.266 -0.1342 -1.2477 -0.3793
17386THY    HP525115   1.793   4.910   2.371 -0.3266 -1.4638  0.3801
17386THY    HP625116   1.743   4.787   2.245  1.9999 -0.9451 -1.7578
17386THY    HP725117   1.749   4.964   2.215  0.9069 -0.0521  0.9848
17386THY    CA325118   1.868   4.805   1.993  0.0585 -0.2399 -0.6521
17386THY    HA325119   1.779   4.758   2.033  0.6156  1.5683 -0.2735
17386THY    CA425120   1.900   4.796   1.860 -0.3688  0.5343  0.0285
17386THY    HA425121   1.833   4.732   1.803 -0.1798 -0.9543  1.1131
17386THY    CA525122   2.009   4.864   1.797 -0.1200  0.8992 -0.0614
17386THY    CM125123   2.022   4.851   1.645 -0.6287 -0.2198  0.0716
17386THY    HM125124   2.063   4.938   1.593 -0.7167 -0.1142  0.1766
17386THY    HM225125   1.923   4.825   1.604 -1.7533  1.5692  1.2684
17386THY    HM325126   2.090   4.768   1.623 -0.8119 -1.1543  0.1580
17386THY    CA625127   2.103   4.924   1.879 -0.4579  0.0065 -1.0769
17386THY    HA625128   2.196   4.970   1.845 -0.6576  0.6975 -0.1320
17387THY      O25129   8.048   7.019   2.934  0.0136 -0.2607 -0.1213
17387THY     HO25130   8.113   7.006   2.863 -0.2420 -0.1908 -2.1555
17387THY    CA125131   7.941   7.090   2.887 -0.5345  0.4550  0.0460
17387THY    CA225132   7.882   7.193   2.961 -0.5081  0.3019  0.7147
17387THY    CP125133   7.925   7.224   3.107 -0.3947 -0.6982 -0.9934
17387THY    HP125134   8.027   7.190   3.129 -0.8249 -0.0328 -1.8848
17387THY    CP225135   7.830   7.166   3.211  0.4887 -0.3831  0.0513
17387THY    HP225136   7.725   7.169   3.178  0.0591  0.6589 -1.7879
17387THY    HP325137   7.850   7.214   3.307  0.8029  0.2584 -1.3274
17387THY    HP425138   7.869   7.065   3.228  1.0834 -0.0494  0.3358
17387THY    CP325139   7.936   7.379   3.127 -0.0573  0.0011 -0.5237
17387THY    HP525140   8.007   7.429   3.060  1.0357  2.7345  1.8464
17387THY    HP625141   7.971   7.416   3.224 -1.8118  1.0885 -1.5806
17387THY    HP725142   7.839   7.425   3.105  0.6604 -0.4743  0.8136
17387THY    CA325143   7.775   7.265   2.900 -0.5249 -0.5880 -0.6021
17387THY    HA325144   7.733   7.352   2.950 -0.3804 -0.3738 -0.6546
17387THY    CA425145   7.747   7.245   2.766 -0.0390 -0.3676  0.7278
17387THY    HA425146   7.675   7.300   2.706  0.5024 -1.5751  0.1704
17387THY    CA525147   7.810   7.141   2.691  0.1512  0.5985 -0.2900
17387THY    CM125148   7.775   7.126   2.540  0.0034  0.0895  0.3878
17387THY    HM125149   7.669   7.099   2.529  0.0525  0.1810  0.1557
17387THY    HM225150   7.850   7.060   2.495  1.4135 -0.2567  2.1481
17387THY    HM325151   7.789   7.220   2.485  1.7632  0.8769  0.6297
17387THY    CA625152   7.901   7.058   2.757 -0.1721  0.7156 -0.0400
17387THY    HA625153   7.967   6.987   2.707  0.3677  0.0038  0.9384
17388THY      O25154   4.961   1.879   5.855 -0.0420  0.5160  0.5463
17388THY     HO25155   5.010   1.962   5.864  1.0451 -4.0773  0.6784
17388THY    CA125156   4.971   1.858   5.724  0.6251  0.0610 -0.7055
17388THY    CA225157   4.883   1.779   5.651  0.2513 -0.0626 -0.7805
17388THY    CP125158   4.751   1.730   5.714 -0.1337  0.2743  0.1859
17388THY    HP125159   4.762   1.748   5.822 -2.9806  0.1623  3.5788
17388THY    CP225160   4.716   1.584   5.708  0.3326  0.0293 -0.1272
17388THY    HP225161   4.615   1.566   5.747 -0.0597  0.3153  2.2716
17388THY    HP325162   4.789   1.538   5.775  0.3416  1.3085  1.6242
17388THY    HP425163   4.744   1.549   5.608  3.3341 -0.2467  2.5895
17388THY    CP325164   4.633   1.810   5.669  0.0690  0.1428 -0.0190
17388THY    HP525165   4.668   1.913   5.675  1.4282 -1.7508 -0.3050
17388THY    HP625166   4.541   1.792   5.726  0.9297  1.1718 -1.3042
17388THY    HP725167   4.609   1.790   5.564  1.0857 -0.8336  3.2695
17388THY    CA325168   4.894   1.765   5.504  0.5823 -0.5561 -0.6708
17388THY    HA325169   4.819   1.715   5.443 -0.5387  1.1323 -1.1425
17388THY    CA425170   5.006   1.834   5.449  0.4007 -0.3459  0.4340
17388THY    HA425171   5.026   1.831   5.342 -0.7822 -0.5698 -1.8932
17388THY    CA525172   5.099   1.898   5.526  0.3610 -0.1311  0.3954
17388THY    CM125173   5.217   1.947   5.461  0.5165 -0.1565  0.4665
17388THY    HM125174   5.247   2.024   5.533 -4.9089  0.8998  2.0117
17388THY    HM225175   5.207   1.989   5.360  0.8380 -0.9662 -1.3012
17388THY    HM325176   5.298   1.873   5.454  0.8232  0.8833  0.6907
17388THY    CA625177   5.084   1.912   5.660 -0.2458 -0.3329 -0.2485
17388THY    HA625178   5.164   1.951   5.722  0.6497  0.6229 -3.3102
17389THY      O25179   4.697   4.425   4.393  0.8910  0.7829  0.2158
17389THY     HO25180   4.655   4.486   4.331  0.1880  0.1468 -0.8830
17389THY    CA125181   4.766   4.323   4.328 -0.8176 -0.1150 -0.6915
17389THY    CA225182   4.754   4.191   4.364  0.4128  1.2526  0.1657
17389THY    CP125183   4.704   4.155   4.500  0.3046 -0.4130 -0.5251
17389THY    HP125184   4.722   4.236   4.571 -1.7040 -1.2585  0.7325
17389THY    CP225185   4.782   4.044   4.566  0.2101  0.4579  0.5399
17389THY    HP225186   4.889   4.064   4.577  0.5603  0.3855 -1.1052
17389THY    HP325187   4.761   3.950   4.513 -1.2039  0.9113  0.5650
17389THY    HP425188   4.734   4.036   4.664  0.0349  0.3097 -0.4749
17389THY    CP325189   4.554   4.134   4.505 -0.4863  0.5182 -0.3808
17389THY    HP525190   4.519   4.131   4.608  0.5244  0.9430  1.3992
17389THY    HP625191   4.548   4.039   4.450  1.9877 -0.7099  0.0772
17389THY    HP725192   4.505   4.217   4.453  0.1736 -2.9849 -1.9912
17389THY    CA325193   4.820   4.101   4.273  0.3844 -0.3490  0.4661
17389THY    HA325194   4.820   3.994   4.295  0.5289 -1.8532  0.1386
17389THY    CA425195   4.895   4.142   4.164 -0.6419 -0.3220  0.0131
17389THY    HA425196   4.946   4.073   4.097 -1.8683 -0.0136 -1.2531
17389THY    CA525197   4.904   4.278   4.133  0.2413 -0.1586  0.4676
17389THY    CM125198   4.981   4.324   4.014 -0.4049  0.2687  0.7689
17389THY    HM125199   4.940   4.414   3.967 -0.7710 -2.4614 -0.7050
17389THY    HM225200   4.968   4.246   3.938  0.9508  1.8044 -1.0223
17389THY    HM325201   5.088   4.326   4.035 -0.7208  2.1978 -0.5122
17389THY    CA625202   4.837   4.369   4.215 -0.5821  0.0778  0.7575
17389THY    HA625203   4.847   4.474   4.189 -2.6975 -1.4514  0.6482
17390THY      O25204   6.742   2.908   2.513  0.0370  0.1698  0.3075
17390THY     HO25205   6.768   2.850   2.585 -1.3779  1.7756  1.5595
17390THY    CA125206   6.668   2.993   2.582  0.5417  0.3406  0.7815
17390THY    CA225207   6.572   3.079   2.526 -0.1611  0.4967  0.3796
17390THY    CP125208   6.546   3.077   2.379  0.7087  0.8312  0.0180
17390THY    HP125209   6.619   3.012   2.328 -0.4951  0.0577 -0.7688
17390THY    CP225210   6.568   3.216   2.323  0.0962  0.3136 -0.1132
17390THY    HP225211   6.667   3.254   2.350  0.4184 -1.9578  0.8302
17390THY    HP325212   6.492   3.285   2.361 -0.5516 -2.2028  0.6863
17390THY    HP425213   6.558   3.222   2.214 -0.7715  0.4500  1.9960
17390THY    CP325214   6.404   3.031   2.343  0.2759 -0.1030  0.2223
17390THY    HP525215   6.404   2.923   2.359  0.6595  1.7603  0.4679
17390THY    HP625216   6.367   3.051   2.242 -0.7512 -0.3080 -2.3972
17390THY    HP725217   6.341   3.090   2.412  1.5666 -0.4775  2.1380
17390THY    CA325218   6.505   3.163   2.615  0.2573 -0.4327 -0.0447
17390THY    HA325219   6.430   3.234   2.580  0.3378 -0.5152 -0.0006
17390THY    CA425220   6.526   3.154   2.757 -0.1493  0.2258 -0.7091
17390THY    HA425221   6.473   3.220   2.825 -0.3792 -0.9871  0.4093
17390THY    CA525222   6.607   3.054   2.810 -0.6825  0.1926 -0.2118
17390THY    CM125223   6.616   3.018   2.953 -0.4841 -0.4899  0.0320
17390THY    HM125224   6.521   3.042   3.003  0.7163  1.2022  1.5326
17390THY    HM225225   6.692   3.072   3.010 -1.0523  1.4647 -1.1507
17390THY    HM325226   6.635   2.911   2.965 -4.2093 -0.4165 -0.7629
17390THY    CA625227   6.687   2.980   2.722  0.6395 -0.2374  0.7912
17390THY    HA625228   6.759   2.911   2.764  1.9967 -1.2676  1.5214
17391THY      O25229   7.296   6.668   2.362  0.0952  0.3256 -0.5615
17391THY     HO25230   7.384   6.675   2.322 -0.2233 -0.3570 -0.4560
17391THY    CA125231   7.231   6.561   2.321  0.3095 -0.0623 -0.1516
17391THY    CA225232   7.106   6.534   2.378 -0.0903  1.1095 -0.3700
17391THY    CP125233   7.043   6.626   2.488  0.3875  0.2155 -0.2371
17391THY    HP125234   7.099   6.712   2.527  0.4348  0.8352 -0.5489
17391THY    CP225235   7.012   6.541   2.614  0.0054  0.4135  0.6284
17391THY    HP225236   7.034   6.604   2.701  2.6089 -0.1981  0.6820
17391THY    HP325237   7.071   6.449   2.620 -2.1948 -1.8792 -1.0586
17391THY    HP425238   6.912   6.498   2.611  0.5914 -1.4255 -0.7495
17391THY    CP325239   6.906   6.693   2.447 -0.3233 -0.6417 -0.0001
17391THY    HP525240   6.915   6.778   2.378 -0.0565 -1.3131 -0.5648
17391THY    HP625241   6.872   6.739   2.540  1.1485  0.3357 -0.8152
17391THY    HP725242   6.824   6.624   2.424 -1.1690 -0.1286  0.8138
17391THY    CA325243   7.043   6.417   2.328  0.2409  0.1095 -0.5734
17391THY    HA325244   6.946   6.384   2.363  0.6226  0.3148 -1.5014
17391THY    CA425245   7.110   6.331   2.240  0.3545 -0.5190 -0.2353
17391THY    HA425246   7.059   6.243   2.203 -1.1362 -2.7152  1.4512
17391THY    CA525247   7.233   6.365   2.197 -0.0160 -0.1601  0.3998
17391THY    CM125248   7.300   6.262   2.117  0.6080 -0.7134 -1.0046
17391THY    HM125249   7.349   6.188   2.182  0.6934  0.9514  0.4245
17391THY    HM225250   7.374   6.312   2.053 -0.3547  0.2475  1.8963
17391THY    HM325251   7.232   6.223   2.041  1.4776 -1.8823 -0.2988
17391THY    CA625252   7.302   6.475   2.245 -0.2450 -0.1077 -0.3916
17391THY    HA625253   7.407   6.496   2.225 -0.6164 -0.3647  1.3932
17392THY      O25254   8.432   1.337   3.955  0.2000 -0.1579 -0.2679
17392THY     HO25255   8.351   1.392   3.951  0.6909 -2.7493  0.4367
17392THY    CA125256   8.529   1.378   3.871  0.5098 -0.1597  0.0076
17392THY    CA225257   8.646   1.309   3.836 -0.4740 -0.4018  0.2837
17392THY    CP125258   8.679   1.172   3.897  1.1612  0.2952 -0.0034
17392THY    HP125259   8.608   1.134   3.971  0.8213  1.0486  2.0301
17392THY    CP225260   8.819   1.181   3.954  0.6599 -0.5454  0.8853
17392THY    HP225261   8.852   1.084   3.992  2.8165 -0.6869  1.5136
17392THY    HP325262   8.819   1.254   4.035  0.2686  0.5972 -0.3431
17392THY    HP425263   8.888   1.216   3.876  1.1701  0.1295  1.3829
17392THY    CP325264   8.696   1.079   3.775  0.5109  0.5642  0.6774
17392THY    HP525265   8.612   1.106   3.709 -1.2215  2.1764 -0.4708
17392THY    HP625266   8.674   0.976   3.806  1.0192 -1.5980 -0.1266
17392THY    HP725267   8.793   1.079   3.725  1.2662  1.9634  0.9130
17392THY    CA325268   8.740   1.377   3.755  0.0811  0.1850  0.2481
17392THY    HA325269   8.824   1.325   3.710 -0.3216 -0.0411 -0.2171
17392THY    CA425270   8.710   1.504   3.700  0.3003 -0.4337  0.0918
17392THY    HA425271   8.778   1.558   3.635  1.7697  0.8746 -0.1112
17392THY    CA525272   8.592   1.569   3.746 -0.1475 -0.1036 -0.4718
17392THY    CM125273   8.575   1.717   3.715 -0.0279  0.1276  0.3682
17392THY    HM125274   8.662   1.768   3.672  0.2436 -3.6081 -2.7945
17392THY    HM225275   8.536   1.757   3.809 -2.2730  0.4505 -2.3024
17392THY    HM325276   8.494   1.727   3.643 -1.3939  1.0278 -2.7257
17392THY    CA625277   8.502   1.500   3.822  0.8114 -0.0171 -0.2992
17392THY    HA625278   8.410   1.548   3.853  0.5462 -1.6453  0.2817
17393THY      O25279   4.373   9.220   2.307  0.0519  0.4151  0.2291
17393THY     HO25280   4.366   9.249   2.399  1.3125  1.5739 -2.6641
17393THY    CA125281   4.256   9.166   2.266  0.2268  0.4175  0.0081
17393THY    CA225282   4.243   9.057   2.180  0.3857 -0.4676 -0.0629
17393THY    CP125283   4.380   8.978   2.157 -0.2150 -0.4502 -1.0198
17393THY    HP125284   4.464   9.049   2.152 -0.7263 -0.7022 -0.4166
17393THY    CP225285   4.376   8.891   2.025  0.2072  0.1802 -0.5815
17393THY    HP225286   4.309   8.804   2.035  1.1762 -0.2901 -1.3977
17393THY    HP325287   4.477   8.852   2.016 -0.0123  1.6943 -1.5986
17393THY    HP425288   4.344   8.937   1.931  0.8310 -0.5862 -1.6748
17393THY    CP325289   4.406   8.885   2.277 -0.2791  0.3762  0.3411
17393THY    HP525290   4.394   8.937   2.373  2.8996  1.2033 -0.2341
17393THY    HP625291   4.500   8.828   2.272 -1.3590 -0.7051 -1.4181
17393THY    HP725292   4.342   8.797   2.289  1.4531  0.8022 -0.9146
17393THY    CA325293   4.122   9.024   2.121 -0.2985 -0.1252 -0.1761
17393THY    HA325294   4.110   8.939   2.054 -1.4486 -0.4752  0.2436
17393THY    CA425295   4.011   9.096   2.159  0.1458  0.0572 -0.1266
17393THY    HA425296   3.913   9.060   2.128 -0.3292  0.2984  0.9281
17393THY    CA525297   4.017   9.198   2.256 -0.2084  0.1063 -0.1513
17393THY    CM125298   3.898   9.277   2.296  0.1182  0.6029  0.3058
17393THY    HM125299   3.927   9.345   2.377  0.7841  1.2541 -0.7256
17393THY    HM225300   3.814   9.219   2.337  1.8363  2.3913 -1.0453
17393THY    HM325301   3.862   9.340   2.215 -1.2714  2.4777  2.0720
17393THY    CA625302   4.139   9.237   2.302 -0.4366 -0.1593  0.7273
17393THY    HA625303   4.142   9.319   2.373 -0.1401 -1.4896  1.8974
17394THY      O25304   2.409   4.310   7.127  0.1844 -0.0439 -0.6409
17394THY     HO25305   2.482   4.359   7.084 -3.0577 -4.9141  0.6660
17394THY    CA125306   2.418   4.301   7.264  0.5750  0.8110  0.1141
17394THY    CA225307   2.373   4.184   7.329  0.4711  0.4113  0.2770
17394THY    CP125308   2.293   4.076   7.247 -0.0706  0.1936  0.0787
17394THY    HP125309   2.234   4.127   7.170 -1.7489  2.6472  2.1171
17394THY    CP225310   2.194   3.996   7.334  0.0537 -0.3011  0.0390
17394THY    HP225311   2.135   4.057   7.403  1.3372  1.0369 -0.1499
17394THY    HP325312   2.243   3.918   7.394  0.3943  0.9339  1.1765
17394THY    HP425313   2.124   3.942   7.269 -2.6485  2.6576 -0.3124
17394THY    CP325314   2.382   3.971   7.172 -0.4719 -0.1565 -0.0460
17394THY    HP525315   2.371   3.867   7.205  0.1346  1.0727  0.2572
17394THY    HP625316   2.485   4.007   7.178 -1.2606 -1.1078  2.6195
17394THY    HP725317   2.363   3.971   7.064  0.7742 -0.4088  1.4131
17394THY    CA325318   2.388   4.167   7.465  0.2725 -0.5047  0.6540
17394THY    HA325319   2.367   4.070   7.510  1.4761 -1.1294  0.0904
17394THY    CA425320   2.463   4.259   7.535 -0.4294 -0.0443  0.5331
17394THY    HA425321   2.477   4.244   7.642 -2.1144  0.0791 -0.5075
17394THY    CA525322   2.519   4.373   7.473  0.1831 -0.4501  0.1755
17394THY    CM125323   2.605   4.474   7.553  0.8210 -0.2209 -0.1642
17394THY    HM125324   2.681   4.426   7.616  1.0014 -0.5966 -0.3816
17394THY    HM225325   2.529   4.542   7.591 -0.0331 -3.4666  0.8955
17394THY    HM325326   2.657   4.542   7.484 -1.3268  0.0957  1.9219
17394THY    CA625327   2.497   4.393   7.338 -0.2281 -0.0308  0.0152
17394THY    HA625328   2.539   4.474   7.279 -2.1156  0.7178  1.6284
17395THY      O25329   5.943   1.046   1.986 -0.3930 -0.4086 -0.0680
17395THY     HO25330   5.885   1.067   1.912 -1.0469  0.3815  1.0193
17395THY    CA125331   5.869   0.970   2.065 -0.0107 -0.5794  0.2346
17395THY    CA225332   5.923   0.917   2.185 -0.2543  0.2241 -0.5106
17395THY    CP125333   6.066   0.953   2.229  0.4371 -0.1541 -0.6982
17395THY    HP125334   6.134   0.987   2.150  0.8646  0.7694  0.6618
17395THY    CP225335   6.146   0.831   2.277 -0.1229 -0.6061  0.0605
17395THY    HP225336   6.249   0.861   2.300 -0.6978  1.6497  0.4664
17395THY    HP325337   6.137   0.754   2.200 -0.0504 -1.2091  0.6443
17395THY    HP425338   6.110   0.782   2.368 -0.5953 -1.5699 -1.4301
17395THY    CP325339   6.069   1.062   2.338 -1.0351 -0.2022 -0.0337
17395THY    HP525340   6.177   1.069   2.357 -0.1850 -3.9980 -0.7254
17395THY    HP625341   6.010   1.042   2.428 -1.8880 -0.2262  2.0686
17395THY    HP725342   6.046   1.163   2.301  0.5806 -0.4106  0.2852
17395THY    CA325343   5.838   0.835   2.263 -0.0851 -0.2512  0.0551
17395THY    HA325344   5.876   0.785   2.352 -1.7464  0.0304 -0.7811
17395THY    CA425345   5.704   0.812   2.226 -0.3319 -0.6215  0.2152
17395THY    HA425346   5.651   0.741   2.290  3.1657  2.1900 -0.1368
17395THY    CA525347   5.656   0.870   2.110  1.0875 -0.4581  1.2803
17395THY    CM125348   5.511   0.850   2.075  0.8176 -0.1339 -0.0445
17395THY    HM125349   5.442   0.912   2.133 -0.3129 -0.1869 -1.2111
17395THY    HM225350   5.474   0.748   2.091 -1.7475  0.1898  0.8472
17395THY    HM325351   5.500   0.873   1.969  0.7582 -0.0450  0.3340
17395THY    CA625352   5.733   0.955   2.034  0.0546  0.1597  0.7863
17395THY    HA625353   5.699   0.991   1.938 -0.6736 -1.6281 -4.0452
17396THY      O25354   1.221   2.734   7.616  0.5324 -0.3721  0.1023
17396THY     HO25355   1.235   2.755   7.522 -0.7115 -0.7562 -0.6652
17396THY    CA125356   1.325   2.784   7.683 -0.2032 -0.3775 -0.2409
17396THY    CA225357   1.340   2.781   7.822  0.1652  0.2046 -0.3430
17396THY    CP125358   1.240   2.698   7.897 -0.2024  0.7913 -0.3233
17396THY    HP125359   1.203   2.622   7.827  1.1527 -1.7575  1.2262
17396THY    CP225360   1.108   2.771   7.942  0.2367 -0.2349  0.5391
17396THY    HP225361   1.054   2.812   7.856 -0.1464  0.1539  0.8587
17396THY    HP325362   1.118   2.858   8.008  1.4186  0.5487 -0.1495
17396THY    HP425363   1.039   2.694   7.980 -0.3077 -1.7994  0.2133
17396THY    CP325364   1.300   2.625   8.013 -0.0542  0.4728 -0.3092
17396THY    HP525365   1.400   2.585   7.991  0.1358 -0.0223  0.4183
17396THY    HP625366   1.232   2.545   8.044 -0.6050  0.3766  0.1133
17396THY    HP725367   1.319   2.689   8.100  0.0703  0.6355 -0.5694
17396THY    CA325368   1.444   2.850   7.879  0.2260 -0.3237 -0.2368
17396THY    HA325369   1.462   2.836   7.985  0.2127 -0.0817  1.3594
17396THY    CA425370   1.533   2.928   7.809  0.1916 -0.1745  0.0995
17396THY    HA425371   1.614   2.981   7.859  0.5427  0.8420 -1.3642
17396THY    CA525372   1.513   2.936   7.673 -0.2776  0.0919  0.3950
17396THY    CM125373   1.615   3.016   7.585  0.8832 -0.1401  0.0275
17396THY    HM125374   1.719   3.007   7.619  0.6937  0.1108 -1.5939
17396THY    HM225375   1.600   3.124   7.588  2.2254 -1.2995  0.2878
17396THY    HM325376   1.595   2.978   7.484 -1.6803  0.6719 -1.0117
17396THY    CA625377   1.416   2.857   7.611 -0.3430 -0.0773 -0.0017
17396THY    HA625378   1.408   2.851   7.503 -2.1603  0.0411 -0.2861
17397THY      O25379   1.967   5.151   7.749 -0.8052  0.7485 -0.0101
17397THY     HO25380   1.873   5.169   7.735  0.0144 -3.0603  2.3640
17397THY    CA125381   2.024   5.278   7.761  0.0745 -0.6128 -0.2365
17397THY    CA225382   2.157   5.310   7.788  0.1192  0.4452 -0.1496
17397THY    CP125383   2.255   5.192   7.786 -0.2647 -0.0147  0.0213
17397THY    HP125384   2.216   5.095   7.751 -0.8021  2.6253 -0.8109
17397THY    CP225385   2.285   5.154   7.938 -0.2779  0.1763  0.8749
17397THY    HP225386   2.326   5.238   7.995  1.0704 -2.0212  1.7848
17397THY    HP325387   2.345   5.063   7.951 -1.2671 -0.4304  0.1072
17397THY    HP425388   2.193   5.120   7.988 -0.2039  2.4745  3.6639
17397THY    CP325389   2.386   5.214   7.705  0.2042 -0.0089  0.1502
17397THY    HP525390   2.427   5.315   7.715 -0.1584  0.4218  0.2574
17397THY    HP625391   2.367   5.212   7.597 -1.0013  0.1583 -2.8710
17397THY    HP725392   2.463   5.139   7.724 -0.4051  0.1360 -0.4452
17397THY    CA325393   2.202   5.446   7.796  0.0797 -0.1834 -0.4307
17397THY    HA325394   2.304   5.462   7.831 -0.8905  2.4202  0.6466
17397THY    CA425395   2.117   5.553   7.771 -0.1017  0.4765  0.5631
17397THY    HA425396   2.156   5.654   7.763 -0.2369  0.6334  0.6278
17397THY    CA525397   1.983   5.519   7.743  0.2769  0.1252 -0.4466
17397THY    CM125398   1.870   5.621   7.731 -0.1824  0.2212 -0.0917
17397THY    HM125399   1.807   5.618   7.820  1.6141  1.5454 -0.4455
17397THY    HM225400   1.817   5.602   7.638  2.0789 -1.8921  2.9307
17397THY    HM325401   1.903   5.725   7.740  0.6891 -0.4130 -0.3009
17397THY    CA625402   1.937   5.388   7.741 -0.0736  0.2088  0.8125
17397THY    HA625403   1.833   5.363   7.722 -0.0538 -0.1870  1.0298
17398THY      O25404   7.308   3.756   6.704  0.4021  0.1907  0.2280
17398THY     HO25405   7.402   3.779   6.702  0.4584  0.7107  0.0464
17398THY    CA125406   7.245   3.877   6.715 -0.9737  0.8060  0.5091
17398THY    CA225407   7.108   3.890   6.683  0.1929 -0.0157 -0.2876
17398THY    CP125408   7.015   3.775   6.646 -0.0027 -0.4019  0.1553
17398THY    HP125409   7.065   3.680   6.670  2.1666 -1.5010  0.9480
17398THY    CP225410   6.999   3.778   6.493 -0.8547  0.0414 -0.0823
17398THY    HP225411   6.929   3.700   6.459  0.0239 -1.2311 -0.3349
17398THY    HP325412   7.094   3.773   6.439 -1.3043 -0.8810  1.0190
17398THY    HP425413   6.942   3.866   6.461  0.3234  0.8353  0.9896
17398THY    CP325414   6.872   3.783   6.717 -0.3453  0.1533 -0.0055
17398THY    HP525415   6.822   3.695   6.675  0.7379  1.4958 -1.3226
17398THY    HP625416   6.819   3.874   6.689  1.3357 -1.6241  0.4784
17398THY    HP725417   6.881   3.780   6.827 -1.6938  0.2539 -2.4174
17398THY    CA325418   7.056   4.016   6.700 -0.8652 -0.4639  0.1335
17398THY    HA325419   6.951   4.042   6.691 -0.7654 -2.6840 -0.0804
17398THY    CA425420   7.142   4.123   6.732  0.0546  0.2226  0.4003
17398THY    HA425421   7.085   4.211   6.758 -1.6913 -0.0304 -0.6025
17398THY    CA525422   7.278   4.113   6.745  0.2151 -0.0998 -0.0696
17398THY    CM125423   7.368   4.232   6.754  0.6048  0.1119  0.0207
17398THY    HM125424   7.364   4.284   6.658 -0.4196 -0.1056 -0.4507
17398THY    HM225425   7.472   4.209   6.783  0.6438 -0.1574 -0.1445
17398THY    HM325426   7.336   4.299   6.834  1.2084  1.4469 -1.2220
17398THY    CA625427   7.331   3.985   6.739 -0.1999 -0.0067  0.4740
17398THY    HA625428   7.439   3.972   6.741 -0.2832 -2.4098 -1.2840
17399THY      O25429   0.912   2.257   2.500 -0.0115 -0.3813 -0.4254
17399THY     HO25430   0.958   2.210   2.429 -0.7445  0.3028 -2.3055
17399THY    CA125431   0.889   2.174   2.604 -0.4081 -0.7235 -0.2818
17399THY    CA225432   0.760   2.174   2.671 -0.2665 -0.6517 -0.0646
17399THY    CP125433   0.645   2.251   2.619  0.0215 -0.3595 -0.0750
17399THY    HP125434   0.670   2.309   2.529  0.4204  0.2411  0.7106
17399THY    CP225435   0.596   2.350   2.727 -0.2208 -0.0511  0.0960
17399THY    HP225436   0.548   2.306   2.815  1.6488  0.5356 -0.8747
17399THY    HP325437   0.520   2.406   2.672  2.3976 -2.2832  1.7180
17399THY    HP425438   0.675   2.418   2.761 -2.1676  2.3530  1.3150
17399THY    CP325439   0.537   2.158   2.576  0.2445 -0.2971  0.2157
17399THY    HP525440   0.479   2.199   2.492  2.0779 -0.8972  1.7695
17399THY    HP625441   0.471   2.135   2.660 -0.9168 -1.0395  0.7742
17399THY    HP725442   0.579   2.063   2.542  0.1349 -0.5561  0.2585
17399THY    CA325443   0.761   2.100   2.794  0.6073 -0.0960  1.0220
17399THY    HA325444   0.667   2.094   2.849  1.0829  0.5549 -1.0214
17399THY    CA425445   0.875   2.033   2.853  0.7363  0.0989 -0.2303
17399THY    HA425446   0.864   1.960   2.933 -0.2728  0.4547  0.2850
17399THY    CA525447   0.990   2.023   2.775 -0.5136 -0.1792  0.3478
17399THY    CM125448   1.103   1.928   2.806 -1.0024 -0.2392 -0.1622
17399THY    HM125449   1.181   1.999   2.838 -0.4315 -1.8299 -0.0511
17399THY    HM225450   1.127   1.863   2.722  0.8351  0.7450 -0.8283
17399THY    HM325451   1.080   1.864   2.892  1.1144  0.4359 -0.1057
17399THY    CA625452   0.995   2.093   2.652  0.1009 -0.3551 -0.0985
17399THY    HA625453   1.093   2.092   2.606 -0.2914 -1.2389  1.0682
17400THY      O25454   2.049   8.439   3.425 -0.5586  0.0970 -0.0321
17400THY     HO25455   2.103   8.486   3.359  1.4971 -0.0739 -2.4458
17400THY    CA125456   2.040   8.515   3.533 -1.2429 -1.0029  0.3417
17400THY    CA225457   2.016   8.461   3.669  0.6249  0.7863 -0.6586
17400THY    CP125458   2.016   8.311   3.692  0.0933  0.2771 -0.0890
17400THY    HP125459   1.954   8.272   3.611 -1.5973  2.0596 -1.3045
17400THY    CP225460   1.934   8.254   3.807  0.6435 -0.3924 -0.6968
17400THY    HP225461   1.826   8.261   3.789  0.5322 -0.9103 -2.9316
17400THY    HP325462   1.955   8.281   3.911 -1.4483  0.1923 -1.0854
17400THY    HP425463   1.951   8.145   3.807  0.5857 -2.0282 -0.7229
17400THY    CP325464   2.148   8.235   3.669  0.0465  0.2404  0.2391
17400THY    HP525465   2.122   8.131   3.643 -1.4368 -3.5848  1.3846
17400THY    HP625466   2.219   8.245   3.752  0.3868 -0.1462  1.1947
17400THY    HP725467   2.198   8.276   3.580  1.7299  1.6906  1.5204
17400THY    CA325468   1.980   8.558   3.763  0.2653 -0.9099  0.0088
17400THY    HA325469   1.956   8.521   3.863  2.3355 -0.2256  0.3695
17400THY    CA425470   1.978   8.695   3.733 -0.0385 -0.4394 -0.5604
17400THY    HA425471   1.938   8.764   3.806 -2.1487 -0.8977 -1.2162
17400THY    CA525472   2.008   8.741   3.606 -0.2067  1.1351  0.0447
17400THY    CM125473   1.997   8.886   3.576 -0.5305 -0.0320 -0.1960
17400THY    HM125474   2.079   8.933   3.520 -0.4234 -0.3406 -0.7552
17400THY    HM225475   1.979   8.946   3.667  0.1986 -1.8581  3.0450
17400THY    HM325476   1.910   8.914   3.515 -0.2733 -0.9850 -1.4017
17400THY    CA625477   2.041   8.651   3.506 -0.1427  0.1594 -0.1270
17400THY    HA625478   2.055   8.693   3.407  0.0860  0.4941  0.6009
17401THY      O25479   7.419   1.942   4.732 -0.3828 -0.1966  0.0995
17401THY     HO25480   7.465   2.016   4.775 -0.4647  0.4558 -0.2178
17401THY    CA125481   7.425   1.832   4.810  0.1143 -0.4607  0.0888
17401THY    CA225482   7.345   1.718   4.793  0.4009  0.0592 -0.0248
17401THY    CP125483   7.244   1.728   4.678  0.4008 -0.0749  0.4889
17401THY    HP125484   7.282   1.801   4.606  0.9477 -1.4432 -1.0787
17401THY    CP225485   7.106   1.773   4.740  0.4975  0.3559 -0.3016
17401THY    HP225486   7.124   1.874   4.778 -0.9999 -0.5727  0.3505
17401THY    HP325487   7.078   1.702   4.819  1.7682 -0.5809 -1.9077
17401THY    HP425488   7.023   1.772   4.668 -0.6535  1.6036  0.9587
17401THY    CP325489   7.230   1.600   4.603  0.1489  0.4287  0.0154
17401THY    HP525490   7.326   1.556   4.572 -0.2478 -1.0388  0.1297
17401THY    HP625491   7.180   1.622   4.508 -0.3760  1.3357  3.1602
17401THY    HP725492   7.169   1.525   4.654 -0.4168 -2.3629 -1.6113
17401THY    CA325493   7.354   1.607   4.887 -0.3331  0.2913 -0.4561
17401THY    HA325494   7.294   1.517   4.874 -1.4585  0.5764  0.2378
17401THY    CA425495   7.446   1.613   4.991  0.0783 -0.8504  0.2914
17401THY    HA425496   7.443   1.526   5.056  2.9264 -1.2245 -0.1738
17401THY    CA525497   7.531   1.724   5.007  0.9080 -0.3272 -0.2258
17401THY    CM125498   7.639   1.732   5.104 -0.2377  0.2937 -0.7173
17401THY    HM125499   7.715   1.810   5.091  0.3871 -0.6233 -1.4574
17401THY    HM225500   7.693   1.637   5.112 -0.0262 -0.4988 -0.6707
17401THY    HM325501   7.597   1.751   5.204  1.2633  0.5863  1.3722
17401THY    CA625502   7.521   1.833   4.916 -0.0660  0.3984  0.3225
17401THY    HA625503   7.599   1.909   4.924 -0.2523  0.1359  0.5414
17402THY      O25504   0.663   6.868   6.836  0.3736  0.1309 -0.1444
17402THY     HO25505   0.714   6.818   6.770 -1.7794 -1.8383  0.0934
17402THY    CA125506   0.583   6.950   6.768  0.3557 -0.7110  0.1342
17402THY    CA225507   0.499   7.043   6.833 -1.1406  1.0244  0.4414
17402THY    CP125508   0.500   7.051   6.989 -0.3267  0.2488  0.5150
17402THY    HP125509   0.603   7.043   7.024 -0.8763  2.1521  1.0876
17402THY    CP225510   0.402   6.943   7.042  0.2800 -0.2567  0.1498
17402THY    HP225511   0.299   6.980   7.039 -0.3341 -0.2881 -1.4599
17402THY    HP325512   0.423   6.924   7.148  1.2867  0.0973  2.8068
17402THY    HP425513   0.406   6.855   6.977  2.0917 -0.0770  0.0608
17402THY    CP325514   0.462   7.185   7.046 -0.6541  0.2336 -0.6126
17402THY    HP525515   0.466   7.174   7.154  0.6123  0.3305  0.5013
17402THY    HP625516   0.363   7.226   7.022 -0.2144 -0.8561 -0.1252
17402THY    HP725517   0.523   7.274   7.025 -2.2881 -0.4094  0.4131
17402THY    CA325518   0.430   7.126   6.743  0.4023 -0.4027  0.2361
17402THY    HA325519   0.354   7.190   6.787 -0.2125  2.0860 -1.9999
17402THY    CA425520   0.441   7.124   6.605 -0.1901 -0.3446  0.3042
17402THY    HA425521   0.384   7.198   6.551 -0.9921  1.8968  1.4331
17402THY    CA525522   0.522   7.022   6.551 -0.1163 -0.2394 -0.0029
17402THY    CM125523   0.535   7.019   6.399  0.7002  0.7393  0.2435
17402THY    HM125524   0.451   6.958   6.365 -0.4432  0.7424  1.7548
17402THY    HM225525   0.626   6.966   6.371  0.5550 -1.1841  0.9594
17402THY    HM325526   0.536   7.119   6.354 -1.8869  0.3784  0.1777
17402THY    CA625527   0.585   6.930   6.633 -0.5467  0.2698 -0.1438
17402THY    HA625528   0.640   6.845   6.593  1.5493  1.6998  0.4641
17403THY      O25529   1.079   6.433   5.649  0.0680 -0.1081  0.1421
17403THY     HO25530   1.103   6.523   5.677  2.0502  1.0799 -0.6950
17403THY    CA125531   0.980   6.449   5.562  0.0353  0.5959  0.4771
17403THY    CA225532   0.874   6.361   5.541  0.3542  0.0758 -0.5725
17403THY    CP125533   0.851   6.243   5.636 -0.0331  0.4408  0.7543
17403THY    HP125534   0.939   6.234   5.701 -0.2147  0.9138  2.1737
17403THY    CP225535   0.840   6.115   5.556 -0.1822 -0.1003 -0.5275
17403THY    HP225536   0.803   6.034   5.620 -0.4162  0.5652  0.0863
17403THY    HP325537   0.934   6.095   5.504  0.4854  0.8336  0.0565
17403THY    HP425538   0.758   6.129   5.484  1.0557 -1.2672  1.1910
17403THY    CP325539   0.737   6.263   5.735  0.2769  0.5187  0.3145
17403THY    HP525540   0.751   6.357   5.789 -1.7050  0.8125  0.5024
17403THY    HP625541   0.732   6.183   5.810  0.3630 -2.6866 -2.9560
17403THY    HP725542   0.641   6.272   5.683  0.1595  0.8532  1.0833
17403THY    CA325543   0.773   6.385   5.443 -0.8689  0.0741  0.0163
17403THY    HA325544   0.686   6.321   5.430  0.1136 -1.1113 -1.1448
17403THY    CA425545   0.781   6.510   5.370 -0.5233  0.7507 -0.2369
17403THY    HA425546   0.713   6.527   5.287  0.0200 -0.2050 -2.3929
17403THY    CA525547   0.878   6.599   5.401 -0.2411  0.0983 -0.3781
17403THY    CM125548   0.876   6.729   5.331 -0.0637  0.2860 -0.3289
17403THY    HM125549   0.882   6.718   5.222  1.3068  0.3401 -0.3619
17403THY    HM225550   0.960   6.789   5.369 -1.1454  1.2898  0.5888
17403THY    HM325551   0.789   6.788   5.362  1.5094  1.6155  1.4267
17403THY    CA625552   0.980   6.567   5.489 -0.1896 -0.3076 -0.2573
17403THY    HA625553   1.061   6.637   5.506 -0.3708 -1.2541  0.1972
17404THY      O25554   7.946   2.681   7.342  0.1042  0.0660  0.1299
17404THY     HO25555   7.975   2.591   7.320 -0.9305 -0.3521 -0.1091
17404THY    CA125556   8.046   2.749   7.396 -0.0670 -0.1193 -0.3826
17404THY    CA225557   8.018   2.853   7.486 -0.0083 -0.2730 -0.4011
17404THY    CP125558   7.874   2.880   7.531 -0.0226  0.3680  0.0994
17404THY    HP125559   7.793   2.827   7.479 -2.8703  3.2698  1.2974
17404THY    CP225560   7.838   3.021   7.534 -0.0763 -0.6197  0.4981
17404THY    HP225561   7.879   3.077   7.619  1.9948 -1.8029  0.9029
17404THY    HP325562   7.732   3.048   7.533  0.0424 -0.1244  1.0180
17404THY    HP425563   7.864   3.059   7.435  0.7750 -1.1534 -1.3666
17404THY    CP325564   7.858   2.818   7.672 -0.0944 -0.2361  0.3564
17404THY    HP525565   7.883   2.712   7.666 -3.3253  1.6849 -0.6672
17404THY    HP625566   7.762   2.824   7.724  1.2858  2.7385 -1.3853
17404THY    HP725567   7.927   2.864   7.743  2.6420 -3.2287  1.2779
17404THY    CA325568   8.136   2.936   7.536  0.1027 -0.8880  1.0860
17404THY    HA325569   8.118   3.021   7.600  1.8364 -0.2562  1.0071
17404THY    CA425570   8.264   2.893   7.489 -0.0737  0.2995 -0.0235
17404THY    HA425571   8.349   2.946   7.531  1.3585 -0.1957 -1.8117
17404THY    CA525572   8.278   2.790   7.398 -0.1051 -0.0457 -0.4788
17404THY    CM125573   8.419   2.753   7.356  0.0069  0.4765 -0.0035
17404THY    HM125574   8.426   2.656   7.306 -1.7169  0.2757 -0.0512
17404THY    HM225575   8.482   2.731   7.443 -0.4757  0.7991 -0.1108
17404THY    HM325576   8.475   2.831   7.302  2.6732  1.7183 -0.9355
17404THY    CA625577   8.174   2.721   7.350  0.4315 -0.1410  0.2491
17404THY    HA625578   8.194   2.654   7.268  0.5334 -1.3191  1.6631
17405THY      O25579   0.574   5.994   4.488 -0.6478 -0.8988  0.3236
17405THY     HO25580   0.594   5.921   4.550  2.5091 -1.5073  0.5338
17405THY    CA125581   0.517   5.939   4.379 -0.1404 -0.3449  0.6290
17405THY    CA225582   0.392   5.984   4.339 -0.4861 -0.0181 -0.3843
17405THY    CP125583   0.309   6.093   4.407  0.0494  0.2995  0.2376
17405THY    HP125584   0.356   6.116   4.503  2.4899 -1.1308  1.6508
17405THY    CP225585   0.162   6.060   4.421  0.2988 -0.3385 -0.4551
17405THY    HP225586   0.154   5.961   4.467  1.7970  3.8516  1.1648
17405THY    HP325587   0.112   6.073   4.324 -0.6015  0.4432  3.1157
17405THY    HP425588   0.130   6.139   4.491  1.3970  0.1993 -0.4691
17405THY    CP325589   0.329   6.216   4.324  0.6900  0.8656  0.2070
17405THY    HP525590   0.276   6.304   4.364 -0.2296 -2.2324  1.1724
17405THY    HP625591   0.292   6.202   4.222 -1.1824  1.6747 -1.2648
17405THY    HP725592   0.437   6.234   4.321  0.8695  0.2877 -0.9047
17405THY    CA325593   0.336   5.916   4.227 -0.1132  0.2133 -0.3332
17405THY    HA325594   0.238   5.943   4.190  1.0107 -2.1587  0.8091
17405THY    CA425595   0.413   5.812   4.163  0.3707  0.4492  0.2858
17405THY    HA425596   0.383   5.760   4.072  3.5618 -0.8038  0.3905
17405THY    CA525597   0.544   5.774   4.210 -0.1315  0.1590  0.3322
17405THY    CM125598   0.627   5.663   4.148  0.4059  0.5176  0.0402
17405THY    HM125599   0.597   5.657   4.043  1.1412  0.3285 -0.3809
17405THY    HM225600   0.610   5.568   4.200  2.7873 -0.4201 -0.9832
17405THY    HM325601   0.734   5.684   4.153  0.1812  0.7883  1.1797
17405THY    CA625602   0.587   5.831   4.328 -0.4976 -0.2959  0.0483
17405THY    HA625603   0.676   5.800   4.381 -0.2057 -0.5589  0.4328
17406THY      O25604   7.101   3.047   5.363 -0.5260  0.0794 -0.3899
17406THY     HO25605   7.192   3.025   5.336  0.4646  2.0362  0.9522
17406THY    CA125606   7.081   2.956   5.459 -0.7478  0.2705  0.8217
17406THY    CA225607   6.978   2.966   5.553  0.8729 -0.1678  0.0865
17406THY    CP125608   6.891   3.099   5.552 -0.1081  0.3267 -0.2328
17406THY    HP125609   6.939   3.169   5.484  0.7392  0.0933 -1.0177
17406THY    CP225610   6.883   3.167   5.685 -0.1793 -0.3792  0.0928
17406THY    HP225611   6.967   3.139   5.750 -0.0673 -0.2507  0.7172
17406THY    HP325612   6.797   3.132   5.744  0.6819  0.5817 -0.4956
17406THY    HP425613   6.881   3.276   5.675  1.2958  1.2650  0.3205
17406THY    CP325614   6.756   3.082   5.487 -0.2376 -0.6068  0.6272
17406THY    HP525615   6.767   3.020   5.398 -0.2467  0.5928 -1.1802
17406THY    HP625616   6.715   3.177   5.453  0.4044 -1.2682  0.6756
17406THY    HP725617   6.688   3.035   5.559  1.0292  0.0285 -0.3196
17406THY    CA325618   6.952   2.855   5.642 -0.7585 -0.0993 -0.2031
17406THY    HA325619   6.867   2.860   5.710  0.5444  1.5913 -0.2452
17406THY    CA425620   7.041   2.748   5.641 -0.0105  0.0318 -0.1086
17406THY    HA425621   7.013   2.660   5.697 -1.9087  0.4136  0.6999
17406THY    CA525622   7.159   2.751   5.564 -0.3504  0.0567 -0.2041
17406THY    CM125623   7.261   2.641   5.584  0.5082 -0.0221 -0.4831
17406THY    HM125624   7.250   2.591   5.682  0.9625  0.8550  1.0918
17406THY    HM225625   7.364   2.679   5.579 -0.7359 -2.4874  3.0547
17406THY    HM325626   7.248   2.572   5.500 -0.3708 -0.8323  0.6405
17406THY    CA625627   7.173   2.852   5.468 -0.5623 -0.2181 -0.1346
17406THY    HA625628   7.256   2.860   5.398 -1.8018 -1.7825 -0.5839
17407THY      O25629   6.379   8.731   3.636 -0.2647 -0.3004  0.2588
17407THY     HO25630   6.385   8.680   3.554  1.3620  0.8055 -1.4600
17407THY    CA125631   6.429   8.655   3.735  0.5298  0.1571  0.0541
17407THY    CA225632   6.423   8.698   3.874 -0.4503 -0.7762 -0.5355
17407THY    CP125633   6.385   8.840   3.905  1.0423  0.9193  0.5239
17407THY    HP125634   6.421   8.902   3.822  0.6872 -0.3630 -0.9322
17407THY    CP225635   6.456   8.887   4.033 -0.1328 -0.7406 -0.6752
17407THY    HP225636   6.455   8.997   4.043 -2.0225  0.2132 -0.7488
17407THY    HP325637   6.564   8.867   4.031  0.0548  0.1666  0.1208
17407THY    HP425638   6.418   8.844   4.126 -1.2186 -1.0246 -0.3478
17407THY    CP325639   6.236   8.864   3.910  0.2918  0.3841 -0.0547
17407THY    HP525640   6.184   8.852   3.814 -1.7422  1.3184  0.7114
17407THY    HP625641   6.217   8.960   3.961 -1.9693 -0.4608  0.0232
17407THY    HP725642   6.187   8.788   3.971  0.5818  1.0161  0.2624
17407THY    CA325643   6.461   8.599   3.970 -0.7298 -0.7348 -1.3390
17407THY    HA325644   6.466   8.631   4.073 -1.3878 -0.7691 -1.1086
17407THY    CA425645   6.495   8.472   3.928 -0.5447 -0.5257 -0.9825
17407THY    HA425646   6.524   8.397   4.001  0.5002  0.4413  0.3087
17407THY    CA525647   6.509   8.434   3.798 -0.7605  0.0771 -0.0073
17407THY    CM125648   6.547   8.291   3.766  0.3190 -0.5560  0.6220
17407THY    HM125649   6.610   8.249   3.845 -1.2613  3.1519  4.4677
17407THY    HM225650   6.607   8.299   3.674  1.9768  0.5367  1.3393
17407THY    HM325651   6.460   8.227   3.744  1.9844 -0.4653 -1.8120
17407THY    CA625652   6.473   8.526   3.699 -0.5912  0.2406  0.0931
17407THY    HA625653   6.464   8.487   3.599 -1.1929  1.2271 -2.5165
17408THY      O25654   2.252   7.093   4.461  0.2856 -0.2253  0.3635
17408THY     HO25655   2.279   7.186   4.448  2.6763 -0.1904 -0.2536
17408THY    CA125656   2.159   7.078   4.555 -0.0951  0.0286 -0.6852
17408THY    CA225657   2.089   6.952   4.570  0.1102 -0.1082  0.5811
17408THY    CP125658   2.122   6.843   4.476  0.0734 -0.1985 -0.4185
17408THY    HP125659   2.227   6.852   4.447 -0.1136 -0.2737  2.2104
17408THY    CP225660   2.036   6.835   4.343 -0.2487 -0.1137  0.4387
17408THY    HP225661   2.037   6.733   4.303 -0.0089  1.4652 -0.2004
17408THY    HP325662   2.063   6.919   4.277  0.7815  2.4621  2.2380
17408THY    HP425663   1.939   6.861   4.387 -0.3280  0.0973 -0.1966
17408THY    CP325664   2.101   6.703   4.539  0.1352  0.6395  0.0086
17408THY    HP525665   2.137   6.624   4.471  0.4537  2.1439 -1.2047
17408THY    HP625666   1.995   6.682   4.554  0.6233  3.0850 -1.0830
17408THY    HP725667   2.151   6.692   4.636  0.7932  0.2385 -0.7086
17408THY    CA325668   1.993   6.936   4.679  0.2957 -0.2308  0.0496
17408THY    HA325669   1.954   6.836   4.691  0.2560 -0.3096  0.0552
17408THY    CA425670   1.948   7.053   4.747 -0.5223 -0.6795  0.9144
17408THY    HA425671   1.867   7.046   4.819 -0.5879 -0.3686  3.6955
17408THY    CA525672   2.024   7.176   4.742  0.3224 -0.2446  0.2379
17408THY    CM125673   1.991   7.298   4.817  0.2583  0.0146 -0.3881
17408THY    HM125674   2.038   7.379   4.760  2.1849  1.1334 -0.6694
17408THY    HM225675   2.029   7.286   4.919 -3.7725  1.7958  0.3467
17408THY    HM325676   1.882   7.312   4.828 -0.2323 -1.0341 -2.8526
17408THY    CA625677   2.126   7.184   4.640  0.1394  0.3209  0.2102
17408THY    HA625678   2.179   7.278   4.624 -1.6156  1.1043  1.3924
17409THY      O25679   2.319   7.079   7.247  0.6455  0.3557  0.6511
17409THY     HO25680   2.253   7.118   7.187 -0.8778  1.6527  0.1454
17409THY    CA125681   2.410   7.176   7.280  0.8052 -0.0832 -0.3640
17409THY    CA225682   2.508   7.158   7.372  0.1405 -0.2407  0.6617
17409THY    CP125683   2.523   7.025   7.443 -0.0740 -0.0989 -0.0334
17409THY    HP125684   2.468   6.948   7.387  1.0841 -0.4545 -0.6282
17409THY    CP225685   2.473   7.040   7.583  0.0876  0.3215  0.2521
17409THY    HP225686   2.519   7.129   7.627 -0.9544  0.7281  0.6041
17409THY    HP325687   2.495   6.956   7.650 -0.8532 -0.1032 -0.3509
17409THY    HP425688   2.364   7.058   7.587  0.0600  1.9649 -0.1237
17409THY    CP325689   2.665   6.980   7.443  0.0667  0.4615 -0.0819
17409THY    HP525690   2.681   6.883   7.492  0.0998 -0.3255 -0.4868
17409THY    HP625691   2.722   7.046   7.509  1.6234 -2.7013  2.0091
17409THY    HP725692   2.719   6.985   7.347 -0.7860  0.0334  1.1192
17409THY    CA325693   2.599   7.264   7.406 -0.2307  0.1914 -0.0916
17409THY    HA325694   2.674   7.265   7.484 -1.0877  1.0382  0.5876
17409THY    CA425695   2.579   7.386   7.346 -0.6406  0.6299  0.0826
17409THY    HA425696   2.641   7.473   7.365  0.2230 -0.6784 -0.2271
17409THY    CA525697   2.486   7.395   7.243 -0.1069 -0.8297  0.0548
17409THY    CM125698   2.470   7.521   7.160  0.5981  0.3156 -0.8498
17409THY    HM125699   2.381   7.575   7.193 -0.1402 -0.5812 -1.4886
17409THY    HM225700   2.471   7.498   7.053  1.7343 -1.2570  4.9747
17409THY    HM325701   2.556   7.589   7.170  0.7706  0.1241 -1.0381
17409THY    CA625702   2.389   7.299   7.223  0.3259 -0.2192 -0.1738
17409THY    HA625703   2.308   7.308   7.151 -0.6938  0.5729 -2.3185
17410THY      O25704   6.619   1.222   3.360 -0.6298  0.2841  0.1128
17410THY     HO25705   6.609   1.305   3.408 -0.0100  0.6657 -0.0293
17410THY    CA125706   6.645   1.275   3.236  0.2572 -0.0484 -0.1406
17410THY    CA225707   6.671   1.196   3.120 -0.1105 -0.4034  0.8085
17410THY    CP125708   6.653   1.044   3.126 -0.1484  0.8740 -0.1831
17410THY    HP125709   6.646   1.001   3.227 -2.5603  0.7549 -0.1804
17410THY    CP225710   6.770   0.966   3.067  0.4931  0.0472  0.9170
17410THY    HP225711   6.865   1.019   3.085  2.0070 -0.3677 -1.4991
17410THY    HP325712   6.775   0.955   2.958 -2.4481 -0.0119 -0.6487
17410THY    HP425713   6.784   0.876   3.128 -1.1526 -0.9535 -0.0780
17410THY    CP325714   6.528   0.997   3.051  0.1414  0.6829  0.7969
17410THY    HP525715   6.496   0.897   3.082 -1.4015 -0.5919  0.8677
17410THY    HP625716   6.534   0.998   2.942  2.2864  0.7584  1.4612
17410THY    HP725717   6.452   1.064   3.093  0.2854  1.3802  0.5328
17410THY    CA325718   6.696   1.268   2.996  0.5100 -0.5944  0.2548
17410THY    HA325719   6.712   1.227   2.896  1.0741 -1.4462  2.3799
17410THY    CA425720   6.711   1.409   2.994 -0.6673 -0.2538 -0.1362
17410THY    HA425721   6.730   1.460   2.900 -0.9122 -0.1854  0.0844
17410THY    CA525722   6.697   1.480   3.113 -0.1268 -0.3841 -0.2308
17410THY    CM125723   6.721   1.625   3.112 -0.0610  0.4111 -0.5930
17410THY    HM125724   6.823   1.657   3.136 -0.0105  0.4123 -0.7520
17410THY    HM225725   6.663   1.663   3.196  0.6155  0.6436 -0.0479
17410THY    HM325726   6.685   1.672   3.020 -0.3711  0.6332 -0.3933
17410THY    CA625727   6.665   1.410   3.233 -0.0381  0.1530 -0.9962
17410THY    HA625728   6.670   1.462   3.328  0.2260 -0.8651  0.9209
17411THY      O25729   8.233   5.707   3.328 -0.0778 -0.1160  0.3827
17411THY     HO25730   8.240   5.802   3.350 -1.2117  3.6357 -0.2358
17411THY    CA125731   8.221   5.693   3.192  0.9162 -0.8544 -0.1218
17411THY    CA225732   8.206   5.563   3.139  0.2068  0.4304 -0.6254
17411THY    CP125733   8.197   5.439   3.231  0.3960 -0.4059  0.9378
17411THY    HP125734   8.213   5.469   3.335 -0.6116  0.3695 -1.0795
17411THY    CP225735   8.294   5.327   3.193  0.3826  0.3621  0.4662
17411THY    HP225736   8.387   5.380   3.169  0.7980  0.5833 -0.1482
17411THY    HP325737   8.256   5.272   3.107 -0.0273  0.7274  0.1704
17411THY    HP425738   8.313   5.249   3.268  1.5136 -1.4555 -1.0931
17411THY    CP325739   8.053   5.393   3.228 -0.2460 -0.4448 -0.3172
17411THY    HP525740   7.984   5.471   3.263  0.2412  2.0367 -0.9000
17411THY    HP625741   8.046   5.295   3.278  1.3795 -0.3357 -0.4134
17411THY    HP725742   8.022   5.364   3.127 -2.0319 -0.0262  0.0214
17411THY    CA325743   8.218   5.551   3.003  0.6665 -0.6315  0.2600
17411THY    HA325744   8.200   5.454   2.958  1.7120  0.1578 -0.3275
17411THY    CA425745   8.238   5.663   2.929  0.2912  0.6572  0.6323
17411THY    HA425746   8.240   5.643   2.822  0.0386  0.1808  2.8963
17411THY    CA525747   8.247   5.796   2.981 -0.0856  0.0454  0.4444
17411THY    CM125748   8.266   5.912   2.894  0.0496  0.5505 -0.4021
17411THY    HM125749   8.248   5.902   2.786  2.1396  0.0548  0.6198
17411THY    HM225750   8.366   5.951   2.917  0.7520 -0.9690 -1.1966
17411THY    HM325751   8.196   5.989   2.929 -0.6896  2.7362 -1.9723
17411THY    CA625752   8.237   5.807   3.120 -0.2147  0.4275 -0.1353
17411THY    HA625753   8.259   5.905   3.161 -0.9230 -0.0370  0.2319
17412THY      O25754   3.209   2.433   3.069 -0.0248 -0.1264 -0.3213
17412THY     HO25755   3.211   2.529   3.058 -2.0696  1.2404 -0.0564
17412THY    CA125756   3.100   2.392   2.991 -0.1609  0.4874 -0.1454
17412THY    CA225757   3.078   2.255   2.957 -1.4782  0.0865 -0.6206
17412THY    CP125758   3.184   2.152   3.013 -0.5323 -0.2512  0.8815
17412THY    HP125759   3.281   2.199   3.033 -0.4270 -0.9510  0.9749
17412THY    CP225760   3.206   2.020   2.926 -0.5833  0.0546 -0.4490
17412THY    HP225761   3.107   1.977   2.912 -1.0617  1.9840 -0.0854
17412THY    HP325762   3.272   1.946   2.973 -0.8244  2.3982  0.7308
17412THY    HP425763   3.246   2.052   2.829  1.4267  0.5880 -1.1963
17412THY    CP325764   3.140   2.114   3.147  0.5395  0.5366 -0.1992
17412THY    HP525765   3.153   2.203   3.210 -0.9296  0.5073  0.0487
17412THY    HP625766   3.192   2.023   3.180 -0.6110  0.5958 -0.8545
17412THY    HP725767   3.034   2.087   3.150  0.0467 -1.9379  1.1607
17412THY    CA325768   2.967   2.220   2.878  0.3580 -0.1758 -0.5810
17412THY    HA325769   2.944   2.114   2.864  2.2458 -0.0022 -1.0440
17412THY    CA425770   2.880   2.321   2.829 -0.6803 -0.3567  0.6684
17412THY    HA425771   2.799   2.289   2.764 -0.5164 -0.1057 -0.2822
17412THY    CA525772   2.901   2.459   2.861  0.2324 -0.4487  0.0194
17412THY    CM125773   2.808   2.558   2.792 -0.2859 -0.1959 -0.9327
17412THY    HM125774   2.798   2.652   2.848 -1.2129  0.8066 -1.6106
17412THY    HM225775   2.705   2.520   2.792 -0.3424  2.1762 -0.9297
17412THY    HM325776   2.843   2.591   2.694 -1.2134 -0.5167 -0.8868
17412THY    CA625777   3.010   2.492   2.951 -0.5655  0.3197 -0.0378
17412THY    HA625778   3.015   2.598   2.971 -0.6912  2.3532 -0.3595
17413THY      O25779   3.526   3.133   2.939 -0.2063 -0.0344 -0.1455
17413THY     HO25780   3.508   3.140   2.843  1.9694 -0.5308 -0.5790
17413THY    CA125781   3.660   3.151   2.934 -0.1017 -0.1255  0.5113
17413THY    CA225782   3.750   3.077   3.013 -0.2242  0.1527 -0.5301
17413THY    CP125783   3.700   2.980   3.124 -0.2429 -0.0946 -0.4326
17413THY    HP125784   3.596   2.996   3.153  0.6774  2.1993  2.3606
17413THY    CP225785   3.771   3.009   3.258 -0.9223 -0.1616 -0.4522
17413THY    HP225786   3.759   3.115   3.286  1.1806 -3.0234  0.6953
17413THY    HP325787   3.878   2.989   3.243 -0.9501 -0.7409 -0.1912
17413THY    HP425788   3.732   2.940   3.333  0.6007  0.5085 -0.6402
17413THY    CP325789   3.720   2.829   3.091 -0.4777 -0.9564  0.1904
17413THY    HP525790   3.673   2.808   2.994  1.0454 -1.3634 -1.6093
17413THY    HP625791   3.675   2.768   3.170  0.8343 -0.1449  0.2292
17413THY    HP725792   3.825   2.801   3.077  0.3218  2.2393  1.2659
17413THY    CA325793   3.892   3.088   2.989  0.1907 -0.7308 -0.1262
17413THY    HA325794   3.955   3.045   3.066  0.2764 -1.3853 -1.1966
17413THY    CA425795   3.936   3.162   2.881  0.0395  0.0559  0.0057
17413THY    HA425796   4.043   3.172   2.872 -0.0577 -0.6086  0.4917
17413THY    CA525797   3.841   3.225   2.796  0.0525 -0.0286 -0.2063
17413THY    CM125798   3.893   3.301   2.681  0.0927 -0.1389 -0.1007
17413THY    HM125799   3.876   3.252   2.585  1.2803 -0.7269  0.6004
17413THY    HM225800   3.996   3.334   2.696 -0.7917  2.3833  1.8376
17413THY    HM325801   3.831   3.392   2.677  1.2448 -1.7687  0.6740
17413THY    CA625802   3.703   3.214   2.817 -0.7461 -0.1929 -0.9115
17413THY    HA625803   3.629   3.263   2.754 -0.0059 -1.4863 -1.4100
17414THY      O25804   9.068   4.610   6.953  0.1228 -0.0365 -0.2456
17414THY     HO25805   9.087   4.568   7.039  0.4301  0.0265  0.0160
17414THY    CA125806   8.939   4.633   6.931 -0.6379  0.0223 -0.0366
17414THY    CA225807   8.890   4.734   6.846  0.0928 -0.2451  0.2593
17414THY    CP125808   8.988   4.822   6.765  0.6857  0.0439  0.0606
17414THY    HP125809   9.060   4.755   6.715  0.3679 -1.1750  0.5926
17414THY    CP225810   9.065   4.924   6.853 -0.0101  0.2456  0.0212
17414THY    HP225811   9.148   4.968   6.797 -2.2094 -0.8062  3.1593
17414THY    HP325812   9.094   4.858   6.936 -0.4005  1.2922  1.1267
17414THY    HP425813   8.997   5.000   6.892 -0.7293  1.2716 -1.1088
17414THY    CP325814   8.921   4.886   6.644 -0.3382  0.8801 -0.6540
17414THY    HP525815   8.862   4.976   6.664  1.3029  0.7022  0.5050
17414THY    HP625816   8.853   4.818   6.591  0.2110 -1.9802  0.8819
17414THY    HP725817   8.992   4.928   6.572 -0.4086  1.9260  1.3548
17414THY    CA325818   8.752   4.748   6.838  0.4893 -0.0071 -0.5224
17414THY    HA325819   8.713   4.824   6.771  3.0200 -0.2072  0.6945
17414THY    CA425820   8.665   4.663   6.908 -0.2330 -0.6847 -0.5630
17414THY    HA425821   8.557   4.673   6.906 -0.3101 -1.3891 -1.3931
17414THY    CA525822   8.725   4.564   6.993  0.5680  0.3563  0.1604
17414THY    CM125823   8.633   4.479   7.077 -0.1688 -0.2809 -0.7593
17414THY    HM125824   8.680   4.396   7.131  0.4494  1.3107  0.5816
17414THY    HM225825   8.548   4.438   7.022  0.7085  0.3158 -3.5795
17414THY    HM325826   8.585   4.540   7.154  0.4446  0.5743 -1.3412
17414THY    CA625827   8.858   4.552   6.997 -0.5017 -0.3422  0.8583
17414THY    HA625828   8.898   4.476   7.064 -2.8492  1.9760  1.5213
17415THY      O25829   2.481   4.687   3.710  0.2776  0.2031 -0.2130
17415THY     HO25830   2.425   4.645   3.642  0.4182 -1.1611  1.6546
17415THY    CA125831   2.482   4.820   3.685 -0.0653 -1.3332  0.4678
17415THY    CA225832   2.519   4.912   3.789 -0.0859  0.2488 -0.2578
17415THY    CP125833   2.577   4.863   3.922  0.4203  0.2610  0.3158
17415THY    HP125834   2.622   4.764   3.906  0.9295  0.1933  0.5516
17415THY    CP225835   2.467   4.853   4.027 -0.5030  0.6101  0.7638
17415THY    HP225836   2.434   4.952   4.061  0.2278 -1.6000  1.8488
17415THY    HP325837   2.499   4.793   4.113 -2.8299  0.2579 -1.1060
17415THY    HP425838   2.383   4.798   3.984 -0.0434 -0.3522  0.7872
17415THY    CP325839   2.696   4.948   3.967 -0.1748 -0.0453 -0.3923
17415THY    HP525840   2.764   4.893   4.034  0.1018  0.9236  1.0782
17415THY    HP625841   2.665   5.047   4.002  0.3549  0.1655 -0.2987
17415THY    HP725842   2.748   4.955   3.870 -0.4003 -0.2389 -1.2336
17415THY    CA325843   2.518   5.043   3.758 -0.0222 -0.1362 -0.6089
17415THY    HA325844   2.547   5.118   3.831  2.3339 -0.6958 -0.8763
17415THY    CA425845   2.459   5.090   3.638  0.1304  0.2976  0.1722
17415THY    HA425846   2.445   5.194   3.610 -0.5153 -2.7657 -0.6316
17415THY    CA525847   2.412   4.995   3.537 -0.6589 -0.8696  0.2540
17415THY    CM125848   2.364   5.031   3.401  0.1307 -0.5704  0.3070
17415THY    HM125849   2.336   5.137   3.401 -1.4615 -1.7429 -0.0800
17415THY    HM225850   2.279   4.971   3.369 -0.1714  0.9634 -0.1310
17415THY    HM325851   2.436   5.029   3.318  0.4401 -0.3182 -2.3446
17415THY    CA625852   2.431   4.862   3.566  0.1143  0.2505  0.3813
17415THY    HA625853   2.387   4.790   3.497 -1.9496  1.5556  0.3026
17416THY      O25854   6.100   1.897   3.050 -0.3973  0.1384 -0.0009
17416THY     HO25855   6.071   1.872   3.140 -2.3968 -0.7528 -1.1734
17416THY    CA125856   6.186   1.803   3.015 -0.2205 -0.8327 -0.1954
17416THY    CA225857   6.221   1.775   2.883 -0.4111  0.3532 -0.2848
17416THY    CP125858   6.157   1.858   2.775  0.2041 -0.6658 -0.2279
17416THY    HP125859   6.114   1.946   2.824 -0.8823 -0.9140 -0.6055
17416THY    CP225860   6.045   1.777   2.715 -0.1197  0.2280  0.3425
17416THY    HP225861   6.070   1.673   2.693 -2.4542  4.5616 -1.3743
17416THY    HP325862   6.004   1.827   2.626 -1.0855  0.8738  0.7152
17416THY    HP425863   5.970   1.772   2.794 -1.5366 -1.0498  0.6154
17416THY    CP325864   6.248   1.911   2.664  0.8073 -0.4543  0.2996
17416THY    HP525865   6.185   1.969   2.596 -0.1164  1.7286  2.0056
17416THY    HP625866   6.273   1.818   2.612 -0.3729 -1.1300  0.3487
17416THY    HP725867   6.334   1.963   2.707 -0.2832  1.9742  0.2242
17416THY    CA325868   6.318   1.678   2.850  0.1736  0.5028  0.0512
17416THY    HA325869   6.344   1.662   2.746 -0.2836  0.0645  1.8914
17416THY    CA425870   6.372   1.607   2.955 -0.2565  0.4001 -0.0426
17416THY    HA425871   6.436   1.524   2.929 -1.8980 -2.4834 -0.5456
17416THY    CA525872   6.328   1.624   3.085 -0.1240 -0.4894 -0.5146
17416THY    CM125873   6.365   1.542   3.205 -0.4558  0.1035 -0.0555
17416THY    HM125874   6.280   1.488   3.250  0.5989  0.4236 -1.4838
17416THY    HM225875   6.432   1.600   3.270  0.5508 -0.3633 -0.6760
17416THY    HM325876   6.423   1.456   3.171 -0.0175 -0.1417  0.3319
17416THY    CA625877   6.241   1.729   3.117 -0.1019  0.7585 -0.5891
17416THY    HA625878   6.209   1.746   3.219 -0.0596  0.6378  0.2349
17417THY      O25879   8.177   0.636   2.229 -0.1641 -0.0440 -0.0583
17417THY     HO25880   8.246   0.589   2.280 -0.4214 -0.5965 -1.0610
17417THY    CA125881   8.100   0.546   2.167 -0.1099  0.2419 -1.1399
17417THY    CA225882   8.005   0.584   2.071 -0.4416  0.1103 -0.0840
17417THY    CP125883   7.980   0.731   2.030 -0.0202 -0.1862  0.4338
17417THY    HP125884   8.077   0.782   2.025  0.0153 -1.7204  0.2720
17417THY    CP225885   7.881   0.803   2.116  0.3535 -0.0521 -0.8253
17417THY    HP225886   7.798   0.734   2.135 -0.9133  0.3211  0.7372
17417THY    HP325887   7.840   0.892   2.067  0.2980  1.2503 -0.1111
17417THY    HP425888   7.930   0.837   2.208 -1.6808  0.8819 -0.3100
17417THY    CP325889   7.924   0.738   1.893 -0.3638  0.1993  0.3778
17417THY    HP525890   7.982   0.673   1.827 -0.1691  0.6754  0.0603
17417THY    HP625891   7.943   0.838   1.852  2.3326 -0.9599 -0.5262
17417THY    HP725892   7.815   0.730   1.891 -0.6077  0.8982  2.6675
17417THY    CA325893   7.935   0.472   2.014 -0.0310  0.0145 -0.3717
17417THY    HA325894   7.858   0.481   1.938  1.4348 -1.4719  0.1452
17417THY    CA425895   7.970   0.337   2.042 -0.0753 -0.2601 -0.0185
17417THY    HA425896   7.916   0.251   2.002  0.9217  2.0149 -1.8054
17417THY    CA525897   8.067   0.312   2.137 -0.4854  0.5452  0.0192
17417THY    CM125898   8.084   0.164   2.179 -0.2502  0.3856 -1.0855
17417THY    HM125899   7.991   0.124   2.220 -0.0637  0.7849 -1.1218
17417THY    HM225900   8.165   0.141   2.250  1.1390 -0.6164  0.4478
17417THY    HM325901   8.114   0.118   2.084  0.9712  0.3419 -0.2599
17417THY    CA625902   8.139   0.413   2.191  0.4326 -0.8346 -0.0452
17417THY    HA625903   8.212   0.392   2.269 -0.8269  1.1113  2.2146
17418THY      O25904   1.031   5.449   3.168 -0.2899 -0.1732  0.2234
17418THY     HO25905   1.020   5.443   3.264  2.5468  0.3037  1.0809
17418THY    CA125906   1.105   5.341   3.121 -0.0899  0.1190 -0.6611
17418THY    CA225907   1.168   5.337   2.989  0.3334  0.2713  0.3863
17418THY    CP125908   1.183   5.454   2.903  0.7316 -0.5284 -0.0656
17418THY    HP125909   1.160   5.535   2.974 -0.4811  0.3513 -1.1535
17418THY    CP225910   1.079   5.459   2.791 -0.1705 -1.3671  0.4755
17418THY    HP225911   1.073   5.554   2.738 -1.2782 -2.5681 -0.2265
17418THY    HP325912   0.981   5.436   2.833 -1.1621 -2.6585  2.1663
17418THY    HP425913   1.106   5.389   2.710 -2.0270 -0.5695 -1.2577
17418THY    CP325914   1.318   5.492   2.838 -0.2671  0.1783  0.4598
17418THY    HP525915   1.395   5.468   2.912  1.1893 -2.1788 -2.9580
17418THY    HP625916   1.322   5.601   2.823  0.5946  0.2091  0.4431
17418THY    HP725917   1.344   5.429   2.753  0.6884  0.8135 -0.0326
17418THY    CA325918   1.244   5.216   2.959  0.3317  0.3883  0.3943
17418THY    HA325919   1.302   5.204   2.868  0.6535  0.7865 -1.3869
17418THY    CA425920   1.242   5.113   3.059  0.2049  0.1601 -0.3982
17418THY    HA425921   1.304   5.025   3.042  1.5197 -1.8772  0.8352
17418THY    CA525922   1.179   5.125   3.178  0.5192 -0.4032  0.2252
17418THY    CM125923   1.173   5.015   3.276  0.2542  0.0143 -0.3144
17418THY    HM125924   1.272   4.989   3.316 -0.2943  1.3714 -0.3876
17418THY    HM225925   1.118   4.928   3.240  1.5743 -2.3958 -0.2438
17418THY    HM325926   1.120   5.047   3.366  0.4936 -0.1593  0.6098
17418THY    CA625927   1.105   5.241   3.211  0.6518  0.5727  0.7407
17418THY    HA625928   1.042   5.243   3.299 -1.3591 -0.7716  0.0049
17419THY      O25929   5.964   7.708   3.624 -0.6793 -0.2654  0.1858
17419THY     HO25930   6.015   7.648   3.680 -1.3229  1.5324  1.2161
17419THY    CA125931   5.837   7.697   3.661  0.4855  1.1544  0.1108
17419THY    CA225932   5.732   7.783   3.622 -0.1345 -0.4089  0.2526
17419THY    CP125933   5.783   7.908   3.558 -0.3093  1.1896 -0.1767
17419THY    HP125934   5.869   7.885   3.493 -0.3184  0.9556  0.4203
17419THY    CP225935   5.820   8.018   3.664 -0.3747  0.1106  0.4235
17419THY    HP225936   5.859   8.109   3.618 -0.5408  2.8584  1.9621
17419THY    HP325937   5.907   7.977   3.717 -1.0654  0.7172 -0.2955
17419THY    HP425938   5.739   8.044   3.734 -0.2268  0.4909 -0.1226
17419THY    CP325939   5.677   7.978   3.466  0.1330 -0.5450  0.7210
17419THY    HP525940   5.694   8.084   3.441  0.0082  1.1407  1.1602
17419THY    HP625941   5.577   7.977   3.510  0.0816 -0.5447 -2.1784
17419THY    HP725942   5.678   7.930   3.367 -1.1384 -0.4610  0.4996
17419THY    CA325943   5.596   7.762   3.661 -0.1071 -0.0926  0.0128
17419THY    HA325944   5.514   7.829   3.638 -1.7343  0.8732 -1.5567
17419THY    CA425945   5.579   7.650   3.742 -0.1119  0.4723 -0.2239
17419THY    HA425946   5.481   7.629   3.783  0.4032  1.8944  0.0760
17419THY    CA525947   5.683   7.562   3.782  0.0632 -0.5463 -0.3091
17419THY    CM125948   5.649   7.447   3.875  0.1958  0.9694  0.4558
17419THY    HM125949   5.710   7.459   3.966  1.6685 -0.0695  1.2171
17419THY    HM225950   5.680   7.353   3.829  0.8010  1.3811  0.4446
17419THY    HM325951   5.542   7.433   3.892 -0.0077 -0.7566 -0.3806
17419THY    CA625952   5.815   7.582   3.736  1.0115 -0.2301  0.2533
17419THY    HA625953   5.899   7.517   3.760 -0.3497  1.1971 -1.0793
17420THY      O25954   6.147   0.319   4.667  0.2295 -0.1860  0.2578
17420THY     HO25955   6.204   0.284   4.737 -0.6582  0.5020  0.1431
17420THY    CA125956   6.016   0.288   4.686 -0.0071  0.5509  0.2256
17420THY    CA225957   5.922   0.308   4.584 -0.2876 -0.3353 -0.9654
17420THY    CP125958   5.978   0.343   4.440  0.0619 -0.5003  0.0407
17420THY    HP125959   6.081   0.379   4.435  0.3016 -1.9675 -0.7748
17420THY    CP225960   5.892   0.443   4.364 -0.4023 -0.1469  0.5317
17420THY    HP225961   5.833   0.507   4.431 -0.5416 -0.9042  1.2112
17420THY    HP325962   5.813   0.399   4.303 -0.3479 -0.8609  1.3870
17420THY    HP425963   5.959   0.495   4.294  1.3902  1.4611  0.5262
17420THY    CP325964   5.974   0.212   4.359  0.1177 -0.2555 -0.2830
17420THY    HP525965   6.050   0.145   4.402  1.9005 -2.6371  0.0610
17420THY    HP625966   5.997   0.224   4.252 -2.9735 -0.8175  1.7664
17420THY    HP725967   5.876   0.166   4.376 -0.2852 -2.4241 -0.3504
17420THY    CA325968   5.790   0.295   4.621  0.3885 -0.5636  0.3285
17420THY    HA325969   5.716   0.310   4.543 -0.3318 -0.4052 -2.0215
17420THY    CA425970   5.751   0.244   4.743 -0.2486  0.0640  0.5400
17420THY    HA425971   5.647   0.220   4.762  0.0350 -0.2543 -1.0404
17420THY    CA525972   5.844   0.215   4.840  0.8732 -0.2423  0.0575
17420THY    CM125973   5.803   0.175   4.975  0.0832 -0.6547  0.4110
17420THY    HM125974   5.729   0.244   5.018 -0.5696 -2.9647  1.2166
17420THY    HM225975   5.889   0.177   5.044  0.6085 -1.2006 -1.4407
17420THY    HM325976   5.760   0.075   4.972 -1.9352  0.5130  1.1759
17420THY    CA625977   5.979   0.237   4.810  0.0652 -0.5030 -0.1921
17420THY    HA625978   6.057   0.215   4.882 -0.1402 -0.6190 -1.3775
17421THY      O25979   6.328   0.495   6.820  0.3212  0.2178  0.2320
17421THY     HO25980   6.365   0.442   6.893  1.6528  0.8084  1.8908
17421THY    CA125981   6.345   0.420   6.703  0.0674  0.3575 -0.1861
17421THY    CA225982   6.270   0.449   6.587  0.0639 -0.3287  0.7409
17421THY    CP125983   6.190   0.571   6.577  0.0083 -0.2605  0.2632
17421THY    HP125984   6.214   0.633   6.664  1.9870  1.2045 -2.3272
17421THY    CP225985   6.037   0.552   6.586 -0.5491  0.2822  0.6527
17421THY    HP225986   5.992   0.502   6.499 -0.2823 -0.7932  2.2232
17421THY    HP325987   5.989   0.648   6.606  1.6106 -1.8565  2.3009
17421THY    HP425988   6.016   0.492   6.675 -0.0117 -0.5207 -0.8130
17421THY    CP325989   6.233   0.655   6.454  0.5916 -0.1745  1.0871
17421THY    HP525990   6.199   0.605   6.363 -0.7464  0.6928  0.3606
17421THY    HP625991   6.342   0.667   6.458  0.3717  0.4059  3.3678
17421THY    HP725992   6.188   0.755   6.449 -0.1342 -1.1601  0.7311
17421THY    CA325993   6.283   0.367   6.478  0.8412 -0.4760  0.3093
17421THY    HA325994   6.224   0.391   6.390 -0.2376  0.2957  0.5937
17421THY    CA425995   6.367   0.255   6.482  0.0552  0.0934 -0.3224
17421THY    HA425996   6.384   0.191   6.395  2.6516  0.6125 -0.4772
17421THY    CA525997   6.449   0.234   6.592  0.4613  0.0751  0.5716
17421THY    CM125998   6.555   0.118   6.596 -0.7883  1.1349  0.3492
17421THY    HM125999   6.526   0.030   6.654 -2.0786  1.9864  1.3059
17421THY    HM226000   6.645   0.145   6.653  1.9964 -0.6782 -3.9740
17421THY    HM326001   6.598   0.095   6.498 -2.5946 -0.0965  1.8991
17421THY    CA626002   6.437   0.320   6.704  0.1208  0.0715 -0.4672
17421THY    HA626003   6.508   0.311   6.786  2.5812 -1.6585  1.5009
17422THY      O26004   6.518   7.067   3.780 -0.1839 -0.9968  0.3380
17422THY     HO26005   6.471   7.068   3.695 -1.0496 -0.5748 -0.9407
17422THY    CA126006   6.607   7.162   3.775 -0.1545 -0.1702 -0.3326
17422THY    CA226007   6.729   7.149   3.838 -0.0457 -0.3618  0.6221
17422THY    CP126008   6.764   7.024   3.922  0.1024  0.3924  0.2824
17422THY    HP126009   6.682   6.953   3.904  0.8876 -1.8007 -0.1386
17422THY    CP226010   6.787   7.063   4.071  0.2774 -0.3360  0.4821
17422THY    HP226011   6.695   7.108   4.111 -0.5226  0.1786 -1.5309
17422THY    HP326012   6.878   7.124   4.072  1.6500  1.4419 -1.4353
17422THY    HP426013   6.801   6.972   4.130 -1.1490  0.5496  0.7969
17422THY    CP326014   6.886   6.954   3.865 -0.3706 -0.0932  0.3146
17422THY    HP526015   6.907   6.868   3.929  0.8131  0.1358  0.7566
17422THY    HP626016   6.980   7.010   3.872 -0.4920 -1.4453  0.7404
17422THY    HP726017   6.876   6.921   3.761 -2.5558  0.3815 -0.7431
17422THY    CA326018   6.828   7.251   3.824 -0.4365 -0.0617 -0.0854
17422THY    HA326019   6.926   7.245   3.871 -0.4897  0.0552 -0.0458
17422THY    CA426020   6.792   7.361   3.757  0.4502  0.3765  0.9988
17422THY    HA426021   6.863   7.442   3.741  1.4897 -3.8004 -0.4379
17422THY    CA526022   6.677   7.364   3.681  0.2365 -0.4399  0.0285
17422THY    CM126023   6.642   7.487   3.590 -0.6444 -1.2571 -0.2326
17422THY    HM126024   6.533   7.497   3.595 -0.4246  0.1254  2.3445
17422THY    HM226025   6.669   7.465   3.486  1.6745 -0.9432  0.8027
17422THY    HM326026   6.687   7.581   3.624  0.3522  0.6866 -1.3505
17422THY    CA626027   6.587   7.261   3.682 -0.1450  0.1838  0.3264
17422THY    HA626028   6.502   7.256   3.615 -1.3011  1.5526  1.0647
17423THY      O26029   9.049   3.216   4.132  0.5259 -0.0727  0.0589
17423THY     HO26030   9.008   3.279   4.194 -0.8591  0.1401 -0.9911
17423THY    CA126031   9.036   3.095   4.195  0.8537 -0.2545  0.5467
17423THY    CA226032   8.937   3.004   4.164  0.2636  0.6358  0.0068
17423THY    CP126033   8.825   3.042   4.064 -0.5498 -0.3001  0.4605
17423THY    HP126034   8.853   3.134   4.012 -0.0518  1.7589  1.5537
17423THY    CP226035   8.689   3.066   4.142  0.6482  0.4428  0.2798
17423THY    HP226036   8.679   2.980   4.209  1.1071 -0.4372 -0.4855
17423THY    HP326037   8.609   3.079   4.068  0.8067  0.1709 -0.2600
17423THY    HP426038   8.708   3.155   4.203 -1.0415  1.6276 -0.1147
17423THY    CP326039   8.810   2.933   3.956 -0.2318 -0.1173  0.3766
17423THY    HP526040   8.751   2.970   3.872  0.9403 -1.2438 -0.2045
17423THY    HP626041   8.763   2.839   3.987  0.6658  0.2309  0.0253
17423THY    HP726042   8.908   2.916   3.910  0.4381  1.1641  0.6609
17423THY    CA326043   8.923   2.880   4.232 -0.0856  0.0998  0.1129
17423THY    HA326044   8.836   2.817   4.216  0.8492  0.8187 -1.4364
17423THY    CA426045   9.019   2.843   4.325 -0.1145  0.1446  0.0986
17423THY    HA426046   9.008   2.748   4.377 -1.4114  0.9005  0.6333
17423THY    CA526047   9.124   2.933   4.355  0.0553  0.3519  0.4984
17423THY    CM126048   9.215   2.899   4.463 -0.4277 -0.5381 -0.4574
17423THY    HM126049   9.159   2.862   4.549 -1.1310  0.3456  2.4612
17423THY    HM226050   9.267   2.990   4.495 -2.4299  1.6553 -0.0065
17423THY    HM326051   9.287   2.820   4.436  0.1703 -1.7101  0.4417
17423THY    CA626052   9.133   3.059   4.299  0.4694  0.4955  0.6241
17423THY    HA626053   9.226   3.113   4.315  2.0615 -1.2671 -1.4284
17424THY      O26054   0.714   5.030   5.942 -0.1224 -0.1676  0.6071
17424THY     HO26055   0.677   4.980   6.016  1.7627 -0.9415 -2.2278
17424THY    CA126056   0.833   4.972   5.919  0.4398 -0.6426 -0.0736
17424THY    CA226057   0.892   4.962   5.792  0.4880  0.7382 -0.3935
17424THY    CP126058   0.821   5.023   5.670 -0.3361  0.5156 -0.2114
17424THY    HP126059   0.746   5.089   5.716 -0.7933 -0.6021  0.0697
17424THY    CP226060   0.761   4.914   5.570 -0.6503  0.0530  0.6893
17424THY    HP226061   0.705   4.958   5.486  0.5853 -1.2633 -0.1686
17424THY    HP326062   0.706   4.836   5.624  0.6424 -1.0203 -1.0525
17424THY    HP426063   0.833   4.845   5.525 -0.5271 -0.2410  1.0096
17424THY    CP326064   0.918   5.112   5.597  0.2515 -0.1396 -0.2035
17424THY    HP526065   0.865   5.191   5.542 -2.0133  2.0295 -0.0800
17424THY    HP626066   0.987   5.053   5.535  0.4589 -1.0667  0.9845
17424THY    HP726067   0.980   5.172   5.665 -0.0792 -0.1871  0.1975
17424THY    CA326068   1.005   4.893   5.771 -0.4318 -0.4542 -0.0513
17424THY    HA326069   1.037   4.871   5.669 -0.2117 -0.5557  0.7113
17424THY    CA426070   1.074   4.838   5.883  0.1404  0.1561 -0.5342
17424THY    HA426071   1.164   4.782   5.861 -0.3668 -1.3761 -0.8165
17424THY    CA526072   1.024   4.858   6.009  0.0066 -0.2703 -0.6216
17424THY    CM126073   1.101   4.807   6.132  0.4777  0.5178 -0.1990
17424THY    HM126074   1.045   4.787   6.225 -0.5663 -0.0026  0.2471
17424THY    HM226075   1.172   4.883   6.167  3.0197 -1.8472 -1.3254
17424THY    HM326076   1.152   4.713   6.107  0.6312  1.7534 -0.4694
17424THY    CA626077   0.904   4.931   6.030 -0.0356  0.4779 -0.5952
17424THY    HA626078   0.875   4.943   6.134  0.3604  0.5617 -0.3451
17425THY      O26079   7.729   0.805   5.480  0.2403  0.0302 -0.5081
17425THY     HO26080   7.738   0.737   5.410  0.9425  0.3261 -0.7281
17425THY    CA126081   7.642   0.904   5.458 -0.0089 -0.2929 -0.2795
17425THY    CA226082   7.641   1.040   5.504 -0.6808  0.4018 -0.1422
17425THY    CP126083   7.733   1.085   5.613 -0.4995  0.4107  0.3978
17425THY    HP126084   7.830   1.033   5.610 -1.2576  0.0715 -1.0459
17425THY    CP226085   7.666   1.063   5.755  0.2265 -0.2747 -0.5754
17425THY    HP226086   7.652   0.955   5.767  0.1557 -0.4160 -0.5816
17425THY    HP326087   7.574   1.117   5.780  0.8590 -0.8892  0.8433
17425THY    HP426088   7.740   1.090   5.831  1.5770 -1.8103  0.1837
17425THY    CP326089   7.776   1.231   5.603  0.1519  0.4830  0.3160
17425THY    HP526090   7.689   1.293   5.628  2.4111  4.5313  2.2710
17425THY    HP626091   7.816   1.252   5.503 -0.2115  0.4033  0.6493
17425THY    HP726092   7.856   1.257   5.674  2.5451 -2.7403  2.5741
17425THY    CA326093   7.532   1.125   5.478  0.1077  0.4766 -0.8770
17425THY    HA326094   7.517   1.225   5.518 -0.8895 -2.0614  0.0645
17425THY    CA426095   7.437   1.076   5.391  0.3919 -0.5708 -0.4225
17425THY    HA426096   7.344   1.128   5.368  0.6150  1.1768  0.8495
17425THY    CA526097   7.436   0.947   5.339  0.2085  0.3653 -0.3863
17425THY    CM126098   7.323   0.889   5.261  0.2607 -0.1916 -0.1983
17425THY    HM126099   7.234   0.954   5.258  0.2447 -0.0595 -0.2147
17425THY    HM226100   7.292   0.793   5.304  0.0539  0.8920  0.3395
17425THY    HM326101   7.356   0.865   5.159 -3.3114 -1.6613  0.3605
17425THY    CA626102   7.536   0.862   5.377 -0.1393 -0.0192  0.3044
17425THY    HA626103   7.531   0.759   5.343  1.9377 -0.9839  0.4750
17426THY      O26104   8.868   8.987   5.119 -0.0187  0.6579  0.6002
17426THY     HO26105   8.923   9.012   5.043  2.2619  1.3062 -1.9391
17426THY    CA126106   8.944   9.001   5.235  0.1404 -0.0558  0.2877
17426THY    CA226107   8.911   8.933   5.356 -0.0409  0.4961  0.8159
17426THY    CP126108   8.778   8.844   5.352  0.3722  0.4036 -0.1335
17426THY    HP126109   8.709   8.872   5.272  0.6103  0.5462  0.9104
17426THY    CP226110   8.705   8.864   5.488  1.0129 -0.3465  0.8565
17426THY    HP226111   8.620   8.794   5.484  0.8778 -0.1641  1.0068
17426THY    HP326112   8.672   8.966   5.514  0.2380  2.8855 -0.0975
17426THY    HP426113   8.773   8.821   5.561 -0.0773  0.5100  0.5277
17426THY    CP326114   8.815   8.699   5.337 -0.0850 -0.3342  0.2636
17426THY    HP526115   8.868   8.660   5.425  0.4571 -0.6481  0.2844
17426THY    HP626116   8.884   8.691   5.252  0.2426  0.0182 -0.7753
17426THY    HP726117   8.732   8.639   5.296 -1.0393 -0.1114  1.3796
17426THY    CA326118   8.994   8.959   5.470  0.5839 -0.4643  0.3844
17426THY    HA326119   8.963   8.919   5.566  1.0520 -1.3075 -2.1538
17426THY    CA426120   9.098   9.051   5.458  0.1593 -0.3019 -0.8885
17426THY    HA426121   9.154   9.076   5.548 -1.9138  1.3007 -1.6268
17426THY    CA526122   9.126   9.117   5.339  0.3862 -0.7562 -0.0940
17426THY    CM126123   9.230   9.224   5.338 -0.0365 -0.9959 -0.2910
17426THY    HM126124   9.317   9.191   5.280  0.2145  0.2168 -1.8841
17426THY    HM226125   9.265   9.237   5.441  0.2133 -1.2841  1.5877
17426THY    HM326126   9.179   9.311   5.296 -0.0320  1.8678  1.2006
17426THY    CA626127   9.045   9.099   5.228 -0.1180  0.4171 -0.9840
17426THY    HA626128   9.074   9.161   5.143  1.7197  0.9224 -1.0795
17427THY      O26129   2.050   6.642   6.151  0.2537  0.8105 -0.2591
17427THY     HO26130   2.028   6.570   6.089  1.9364  0.3512 -0.4306
17427THY    CA126131   2.089   6.752   6.075  0.4370 -0.0790 -0.4427
17427THY    CA226132   2.082   6.884   6.128 -0.2670 -0.0067  0.2360
17427THY    CP126133   2.036   6.902   6.273 -0.4015 -0.3567 -0.2997
17427THY    HP126134   2.039   6.815   6.340 -4.0354  0.4564  0.0097
17427THY    CP226135   1.884   6.932   6.271 -0.3083 -0.0582 -0.0773
17427THY    HP226136   1.833   6.938   6.368 -0.0698  0.0774 -0.2601
17427THY    HP326137   1.825   6.868   6.205  0.0831  1.2329 -1.8207
17427THY    HP426138   1.868   7.037   6.241  0.2805 -0.8026 -0.1910
17427THY    CP326139   2.122   7.016   6.340  0.2858 -0.5001  0.0922
17427THY    HP526140   2.095   7.115   6.302 -2.2653 -0.0615 -0.3593
17427THY    HP626141   2.229   6.995   6.341 -0.2851  3.1230 -3.9219
17427THY    HP726142   2.095   7.024   6.446 -0.0736 -0.5782 -0.0875
17427THY    CA326143   2.104   6.990   6.037 -0.3069  0.1736 -0.6413
17427THY    HA326144   2.093   7.092   6.073 -0.6673  2.7520 -1.5132
17427THY    CA426145   2.142   6.969   5.905 -0.3814 -0.0653  0.6448
17427THY    HA426146   2.160   7.053   5.839  0.2080 -0.2100  0.4127
17427THY    CA526147   2.154   6.836   5.857 -0.2377 -0.0769  0.2340
17427THY    CM126148   2.197   6.815   5.718 -0.5266  0.2277  0.1417
17427THY    HM126149   2.195   6.709   5.692 -1.8954  3.1025 -0.6105
17427THY    HM226150   2.297   6.860   5.711 -1.5283  1.3124  2.7217
17427THY    HM326151   2.129   6.864   5.648  0.9839 -0.8807  0.7673
17427THY    CA626152   2.116   6.735   5.941 -0.5674  0.5376 -0.7924
17427THY    HA626153   2.121   6.634   5.901  0.7990  1.0588 -0.9433
17428THY      O26154   5.933   7.040   4.870  0.5703 -0.5394  0.8944
17428THY     HO26155   6.007   7.057   4.930  2.2881 -1.9553 -1.1698
17428THY    CA126156   5.939   6.909   4.842  0.1246 -0.4397 -1.0678
17428THY    CA226157   5.843   6.845   4.762 -0.1172 -0.0755  0.2086
17428THY    CP126158   5.735   6.928   4.696 -0.0618 -0.8883 -0.3974
17428THY    HP126159   5.726   7.019   4.757 -0.7561 -2.1271  0.3884
17428THY    CP226160   5.595   6.876   4.696  0.7214 -0.2857  0.0723
17428THY    HP226161   5.579   6.780   4.645  2.8419 -1.0748  0.0667
17428THY    HP326162   5.524   6.948   4.655 -1.5521  0.3576 -1.7043
17428THY    HP426163   5.570   6.870   4.802 -0.2396 -0.4827  0.4100
17428THY    CP326164   5.781   6.974   4.558  0.5325 -0.0732 -0.0263
17428THY    HP526165   5.783   6.887   4.491 -2.6848 -1.1016  0.5385
17428THY    HP626166   5.883   7.008   4.540  1.0825 -0.1920 -1.6601
17428THY    HP726167   5.705   7.041   4.517  0.4233  0.2228  0.0291
17428THY    CA326168   5.844   6.701   4.747  0.0842 -0.1599  0.2861
17428THY    HA326169   5.763   6.651   4.694  0.4208 -0.7923  0.3960
17428THY    CA426170   5.939   6.630   4.815 -0.8783 -0.5078  0.6495
17428THY    HA426171   5.945   6.521   4.816 -0.0221  1.5782  0.6674
17428THY    CA526172   6.042   6.695   4.891  0.2605 -0.4930 -0.1591
17428THY    CM126173   6.140   6.613   4.971 -0.1202  0.4974 -0.5204
17428THY    HM126174   6.088   6.523   5.006  0.4760 -1.6390 -1.7692
17428THY    HM226175   6.180   6.670   5.055 -1.7159  0.2656  1.0032
17428THY    HM326176   6.218   6.589   4.898 -0.6994 -0.9696  1.7673
17428THY    CA626177   6.045   6.832   4.895  0.3575 -0.4530  0.8209
17428THY    HA626178   6.130   6.871   4.951  0.3174  0.3750 -0.2387
17429THY      O26179   2.551   8.020   6.554 -0.2660 -0.0031 -0.2149
17429THY     HO26180   2.618   8.085   6.526  0.5598 -0.0473 -1.0656
17429THY    CA126181   2.598   7.946   6.649  0.1961 -0.0345 -0.1082
17429THY    CA226182   2.512   7.878   6.742  0.2655 -0.1098  0.8465
17429THY    CP126183   2.349   7.888   6.751 -0.2251 -0.0938  0.0245
17429THY    HP126184   2.312   7.924   6.654  0.5920  0.3298  2.1770
17429THY    CP226185   2.296   7.992   6.849 -0.2750  0.6945 -0.3373
17429THY    HP226186   2.187   8.000   6.846 -0.3115  3.1686  1.1167
17429THY    HP326187   2.331   8.091   6.819 -1.2058  2.3596  0.5424
17429THY    HP426188   2.331   7.968   6.950 -0.2547  0.9122  0.5987
17429THY    CP326189   2.260   7.761   6.780 -0.2648  0.4549 -0.2368
17429THY    HP526190   2.279   7.689   6.700  0.3211 -2.6368  3.0874
17429THY    HP626191   2.155   7.790   6.774 -0.5349 -2.7846 -1.4622
17429THY    HP726192   2.293   7.724   6.878  0.7573 -0.4010 -1.7335
17429THY    CA326193   2.583   7.810   6.839 -0.2698 -0.1381  0.0758
17429THY    HA326194   2.527   7.753   6.913 -2.3977 -2.0549 -0.4390
17429THY    CA426195   2.718   7.795   6.847 -0.1204  0.9581 -0.2709
17429THY    HA426196   2.760   7.730   6.923  0.2183  0.5084 -0.5856
17429THY    CA526197   2.793   7.863   6.750  0.1488  0.2106 -0.1801
17429THY    CM126198   2.935   7.810   6.730 -0.6449  0.0192 -0.2755
17429THY    HM126199   2.986   7.778   6.822  0.6876 -1.1989 -1.7809
17429THY    HM226200   2.994   7.895   6.692 -2.4161  0.6381  1.3035
17429THY    HM326201   2.946   7.721   6.668 -1.1901  1.1361 -1.1526
17429THY    CA626202   2.734   7.943   6.654 -0.2341 -0.5589 -0.2673
17429THY    HA626203   2.785   7.988   6.569 -1.5811 -0.7848  0.9225
17430THY      O26204   6.588   2.357   3.065  0.4323 -0.6592 -0.4737
17430THY     HO26205   6.647   2.419   3.112 -0.1360  0.2532 -0.5990
17430THY    CA126206   6.657   2.254   3.029 -0.5438  0.4767 -0.3016
17430THY    CA226207   6.594   2.134   2.978  0.4642 -0.1697 -0.0657
17430THY    CP126208   6.446   2.119   2.962  0.1072  0.5235  0.1186
17430THY    HP126209   6.425   2.024   2.912  0.2606 -0.5270  0.6163
17430THY    CP226210   6.401   2.224   2.860  0.7376 -0.1429  0.3642
17430THY    HP226211   6.292   2.215   2.860  0.7155 -0.5929  0.6198
17430THY    HP326212   6.429   2.218   2.755 -2.1842 -0.9856 -0.2421
17430THY    HP426213   6.409   2.326   2.900  2.2704  1.2987 -0.2861
17430THY    CP326214   6.366   2.115   3.095  0.5002  0.8100 -0.5971
17430THY    HP526215   6.371   2.019   3.147 -0.7778 -0.6209 -1.4818
17430THY    HP626216   6.263   2.122   3.060  1.3252 -1.9203 -0.9776
17430THY    HP726217   6.390   2.196   3.166  0.2991 -1.3418  1.4644
17430THY    CA326218   6.684   2.029   2.943 -0.1857 -0.4086 -0.0840
17430THY    HA326219   6.652   1.930   2.910 -0.8591  0.5980 -0.2171
17430THY    CA426220   6.817   2.035   2.968 -0.9483 -0.1122 -0.1188
17430THY    HA426221   6.884   1.952   2.956 -0.3216 -0.4191  0.4245
17430THY    CA526222   6.881   2.149   3.018 -0.0676  0.2609 -0.6198
17430THY    CM126223   7.021   2.146   3.055  0.2714 -0.0587 -0.3329
17430THY    HM126224   7.038   2.058   3.119 -1.0089  1.3680  0.3860
17430THY    HM226225   7.049   2.232   3.118  1.8828  2.0197 -2.2609
17430THY    HM326226   7.074   2.125   2.962 -2.4450 -1.2387 -2.7871
17430THY    CA626227   6.800   2.257   3.039  0.3304 -0.7409  0.1638
17430THY    HA626228   6.842   2.349   3.079  0.5358 -2.2547  0.7680
17431THY      O26229   6.422   3.639   4.126 -0.0230 -0.0347 -0.2339
17431THY     HO26230   6.325   3.641   4.119  0.0494 -1.8779 -0.9818
17431THY    CA126231   6.456   3.517   4.092 -1.0228  0.1290  0.9119
17431THY    CA226232   6.591   3.480   4.071 -0.3120  0.4786 -0.4388
17431THY    CP126233   6.704   3.566   4.109 -0.5421 -0.1445 -0.0673
17431THY    HP126234   6.674   3.665   4.148  0.4006  0.6621 -0.0902
17431THY    CP226235   6.798   3.595   3.988  0.3113  0.2396 -0.1085
17431THY    HP226236   6.738   3.647   3.911 -3.7529 -0.1665 -4.6526
17431THY    HP326237   6.848   3.508   3.944  1.3021  0.0902  0.5180
17431THY    HP426238   6.881   3.650   4.032  2.1052  0.3716 -2.7709
17431THY    CP326239   6.784   3.514   4.227 -0.1496 -0.0543  0.3906
17431THY    HP526240   6.837   3.602   4.264  1.3206 -0.1338 -0.4386
17431THY    HP626241   6.865   3.445   4.202 -0.3444  0.0920  0.1047
17431THY    HP726242   6.721   3.478   4.309 -1.6548 -0.7069  1.4188
17431THY    CA326243   6.622   3.355   4.024 -0.2296 -0.2634  0.2748
17431THY    HA326244   6.725   3.320   4.019  0.0546  1.1079  0.8668
17431THY    CA426245   6.521   3.257   4.009  0.2761 -0.6257  1.0046
17431THY    HA426246   6.539   3.154   3.978 -0.1348  2.4173 -0.1028
17431THY    CA526247   6.388   3.295   4.031  0.0654 -0.0049 -0.1505
17431THY    CM126248   6.276   3.201   4.006 -0.3448 -0.9538 -0.1341
17431THY    HM126249   6.257   3.197   3.898 -0.2952 -0.9167 -2.0454
17431THY    HM226250   6.186   3.230   4.063  1.3282  2.1960 -0.6508
17431THY    HM326251   6.286   3.097   4.040 -0.8656 -2.4635 -0.6940
17431THY    CA626252   6.357   3.426   4.071  0.1971 -0.1516 -0.0466
17431THY    HA626253   6.253   3.457   4.083  0.3712  0.9899  0.1481
17432THY      O26254   5.685   0.900   2.977 -0.1191  0.4337 -0.3028
17432THY     HO26255   5.654   0.829   3.036 -1.2496  0.7528  0.4358
17432THY    CA126256   5.573   0.940   2.914 -0.4146 -0.5164 -0.6623
17432THY    CA226257   5.571   1.019   2.798 -0.5722  0.7898 -0.3163
17432THY    CP126258   5.702   1.079   2.746  0.4987 -0.0042  0.5717
17432THY    HP126259   5.782   1.056   2.816  0.8967  0.2081  2.4183
17432THY    CP226260   5.689   1.237   2.731  0.0370 -0.3284  0.1559
17432THY    HP226261   5.597   1.267   2.681  1.2984 -2.2540  1.0541
17432THY    HP326262   5.781   1.271   2.681  0.4475  1.1265  1.2713
17432THY    HP426263   5.694   1.268   2.836  3.1032  0.5027 -2.5479
17432THY    CP326264   5.731   1.034   2.607 -0.2593  0.0700  0.1819
17432THY    HP526265   5.825   1.079   2.571  0.1751 -0.0433 -0.7924
17432THY    HP626266   5.649   1.073   2.546  0.2465 -0.4511  0.4453
17432THY    HP726267   5.724   0.925   2.603 -1.2834 -0.5445  0.2602
17432THY    CA326268   5.449   1.064   2.736 -0.1271 -0.1202  0.6286
17432THY    HA326269   5.453   1.123   2.645 -0.7185 -0.3128  0.3734
17432THY    CA426270   5.334   1.015   2.797  0.3833 -0.3004 -0.4726
17432THY    HA426271   5.237   1.036   2.752  0.1620 -0.9303 -2.6595
17432THY    CA526272   5.338   0.932   2.916  0.7148 -0.5462 -0.3116
17432THY    CM126273   5.205   0.908   2.989  1.3476  0.4923 -0.3802
17432THY    HM126274   5.190   0.986   3.065  0.6145 -0.5894  0.5603
17432THY    HM226275   5.210   0.808   3.033  0.5099 -0.8133 -1.0058
17432THY    HM326276   5.120   0.905   2.920  0.4892  1.4301  1.1228
17432THY    CA626277   5.454   0.896   2.973  0.3440 -0.6555  0.3393
17432THY    HA626278   5.449   0.838   3.064 -1.1379 -1.4415 -0.8426
17433THY      O26279   5.643   0.690   3.169 -0.1142 -0.5260 -0.1356
17433THY     HO26280   5.611   0.609   3.126  0.6612 -2.4940  0.5505
17433THY    CA126281   5.734   0.653   3.261  0.8238 -0.0339 -0.5276
17433THY    CA226282   5.770   0.729   3.371  0.1435  0.6679 -0.0987
17433THY    CP126283   5.701   0.867   3.387 -0.2793  0.2890 -0.6982
17433THY    HP126284   5.611   0.871   3.325 -0.6134  0.7732 -0.6785
17433THY    CP226285   5.789   0.985   3.339  0.0995 -0.2214 -0.2617
17433THY    HP226286   5.854   0.957   3.256  3.1064  1.2646  1.7965
17433THY    HP326287   5.856   1.022   3.417 -1.1338  0.8305 -0.1576
17433THY    HP426288   5.727   1.070   3.309 -0.2305 -2.2277 -1.1563
17433THY    CP326289   5.656   0.897   3.529 -0.1245 -0.4755  0.3349
17433THY    HP526290   5.595   0.987   3.533 -1.6684 -1.1532 -0.6380
17433THY    HP626291   5.730   0.900   3.610 -1.0088  0.3849 -0.1824
17433THY    HP726292   5.577   0.824   3.551 -1.4601  0.0221  1.8728
17433THY    CA326293   5.878   0.692   3.454  0.2666 -0.0518  0.5390
17433THY    HA326294   5.912   0.746   3.542 -0.8848  1.0268 -0.4452
17433THY    CA426295   5.948   0.575   3.419 -0.1348  0.4444 -0.4816
17433THY    HA426296   6.038   0.549   3.475  1.1511 -0.8400  0.9788
17433THY    CA526297   5.912   0.500   3.312  0.0815  0.4932 -0.1739
17433THY    CM126298   5.990   0.380   3.283 -0.1052 -0.0412 -0.3774
17433THY    HM126299   6.092   0.389   3.322  0.1837 -0.2674 -2.2903
17433THY    HM226300   5.986   0.348   3.178  1.3691 -0.1749 -0.1564
17433THY    HM326301   5.951   0.290   3.331 -0.5166 -1.5953 -1.0631
17433THY    CA626302   5.804   0.541   3.230 -0.3215 -0.3972 -0.1412
17433THY    HA626303   5.772   0.477   3.148  0.4459 -0.7321 -0.1106
17434THY      O26304   6.263   7.205   6.121  0.4227 -0.2862  0.0310
17434THY     HO26305   6.173   7.219   6.087  0.4119  0.8413  3.9018
17434THY    CA126306   6.326   7.134   6.028  1.3993 -0.3819  0.4520
17434THY    CA226307   6.433   7.042   6.045 -0.1521 -0.8463 -0.3150
17434THY    CP126308   6.501   7.030   6.181  0.8080  0.5560 -0.2707
17434THY    HP126309   6.476   7.120   6.239 -1.1836 -3.6158  2.1749
17434THY    CP226310   6.656   7.032   6.163 -0.2493 -0.0779 -0.7468
17434THY    HP226311   6.707   7.048   6.258  0.2795 -0.5427  0.4451
17434THY    HP326312   6.688   7.120   6.106 -0.7328 -0.0621 -0.5576
17434THY    HP426313   6.701   6.943   6.116  2.1331 -2.5094  1.5652
17434THY    CP326314   6.449   6.908   6.258  0.5737  0.3421 -0.3154
17434THY    HP526315   6.341   6.907   6.236  0.7188 -0.7008  1.3607
17434THY    HP626316   6.478   6.917   6.363  0.7018  0.3874 -1.1791
17434THY    HP726317   6.489   6.813   6.221 -2.3754 -0.1351 -1.4901
17434THY    CA326318   6.478   6.968   5.929 -0.8763 -0.2530  0.6080
17434THY    HA326319   6.560   6.898   5.942 -0.1765  0.9708  1.6099
17434THY    CA426320   6.419   6.991   5.807 -0.5081 -0.2736 -0.4273
17434THY    HA426321   6.458   6.953   5.713  1.5080  0.4275 -0.2132
17434THY    CA526322   6.321   7.091   5.794 -0.0782  0.1397 -0.4530
17434THY    CM126323   6.265   7.124   5.653 -0.7911  0.6787  0.2929
17434THY    HM126324   6.208   7.039   5.616  1.4574  0.4587 -1.2213
17434THY    HM226325   6.345   7.149   5.581 -2.1778 -1.6899 -1.7268
17434THY    HM326326   6.195   7.208   5.662 -1.3457  3.6490 -0.3792
17434THY    CA626327   6.271   7.153   5.906 -0.2274  0.0891  0.4354
17434THY    HA626328   6.188   7.223   5.893 -1.1499 -2.9683 -1.0473
17435THY      O26329   7.240   6.826   6.825  0.2680 -0.1224 -0.1202
17435THY     HO26330   7.247   6.740   6.780 -0.0063 -0.4638  0.0342
17435THY    CA126331   7.285   6.829   6.953  0.9570  0.4677 -0.1295
17435THY    CA226332   7.343   6.948   7.012  0.2177  0.2776  1.1869
17435THY    CP126333   7.374   7.062   6.914  0.8524  0.0648  0.6149
17435THY    HP126334   7.422   7.011   6.830  4.3508  1.5225  1.1609
17435THY    CP226335   7.491   7.158   6.958  0.2854  0.1661 -0.7760
17435THY    HP226336   7.563   7.104   7.021 -0.9705  2.1354 -0.2788
17435THY    HP326337   7.444   7.241   7.012  0.8175  0.6630 -0.7933
17435THY    HP426338   7.539   7.201   6.870  2.3276  1.3271 -0.5467
17435THY    CP326339   7.254   7.146   6.872  0.7305  0.3252  0.3601
17435THY    HP526340   7.282   7.230   6.806  1.4599  1.9191  1.4216
17435THY    HP626341   7.193   7.187   6.953  2.7306  2.1105 -0.0341
17435THY    HP726342   7.185   7.071   6.832  1.4622 -1.1425  0.4454
17435THY    CA326343   7.371   6.946   7.148 -0.0742  0.2879 -0.8074
17435THY    HA326344   7.416   7.034   7.194  0.1969  1.5216 -1.5752
17435THY    CA426345   7.338   6.840   7.227  0.4865 -0.0253  0.4297
17435THY    HA426346   7.357   6.846   7.334 -0.7578  0.2558 -0.1870
17435THY    CA526347   7.285   6.722   7.170 -0.2304  0.0686 -0.2515
17435THY    CM126348   7.260   6.605   7.254  0.4679  0.5619 -0.7336
17435THY    HM126349   7.289   6.509   7.210  0.5324  0.0697 -0.4915
17435THY    HM226350   7.157   6.592   7.288 -0.2421 -2.0743 -2.8880
17435THY    HM326351   7.329   6.615   7.339  2.0936 -0.7529 -0.0623
17435THY    CA626352   7.258   6.717   7.031 -0.1832  0.2602 -0.1417
17435THY    HA626353   7.210   6.625   6.997  1.8053 -0.9061 -0.8114
17436THY      O26354   5.143   4.995   2.943 -1.0724  0.0550  0.2105
17436THY     HO26355   5.199   4.933   2.992 -0.6513  0.0270  0.5524
17436THY    CA126356   5.120   4.939   2.819  0.3941  0.6071 -0.1096
17436THY    CA226357   5.026   4.991   2.730  0.9793  0.0210  0.1198
17436THY    CP126358   4.940   5.120   2.755 -0.3348 -0.4245  0.3856
17436THY    HP126359   4.967   5.178   2.845  1.4477 -1.8204  1.8847
17436THY    CP226360   4.791   5.074   2.789 -0.3472  0.4740 -0.4618
17436THY    HP226361   4.736   5.160   2.829  0.0276 -1.4421  0.7289
17436THY    HP326362   4.789   5.000   2.870  0.3756 -0.4133 -1.4963
17436THY    HP426363   4.746   5.034   2.696  2.4604 -1.0089 -0.4049
17436THY    CP326364   4.957   5.212   2.633 -0.0253 -0.0248 -0.1253
17436THY    HP526365   4.879   5.290   2.637  0.7704 -2.3982  0.9050
17436THY    HP626366   4.931   5.158   2.541  0.3884 -0.5805  0.6026
17436THY    HP726367   5.058   5.255   2.632  0.3404  0.4369 -0.9746
17436THY    CA326368   4.995   4.912   2.615  0.0175  0.6301 -0.1069
17436THY    HA326369   4.926   4.946   2.538  0.4692  0.9694  1.6585
17436THY    CA426370   5.055   4.784   2.598 -1.2230 -0.7527  0.3294
17436THY    HA426371   5.023   4.731   2.509 -1.0048 -1.6050  1.5908
17436THY    CA526372   5.156   4.744   2.688  0.1371 -0.4631  0.1160
17436THY    CM126373   5.229   4.617   2.666  0.0723  0.4116 -0.0314
17436THY    HM126374   5.184   4.536   2.725 -1.4321  0.2716  0.6699
17436THY    HM226375   5.333   4.624   2.698  0.5179 -1.3190  2.3054
17436THY    HM326376   5.222   4.591   2.560 -0.8976  0.9707 -2.2839
17436THY    CA626377   5.178   4.818   2.803  0.1384 -0.4692 -0.2158
17436THY    HA626378   5.248   4.784   2.879 -0.8506  0.7725  0.4322
17437THY      O26379   2.680   4.303   5.175 -0.4106  0.5425  0.2433
17437THY     HO26380   2.723   4.342   5.097 -2.0897 -0.0238  1.0554
17437THY    CA126381   2.771   4.303   5.279  0.0173 -0.1015  0.6316
17437THY    CA226382   2.735   4.356   5.406 -0.4483  0.2894  0.6369
17437THY    CP126383   2.592   4.407   5.436  0.1064  1.0766  0.7246
17437THY    HP126384   2.539   4.395   5.341  0.7057  0.4741  2.5261
17437THY    CP226385   2.595   4.562   5.449  0.5752  0.1205 -0.0245
17437THY    HP226386   2.669   4.588   5.525 -0.3438  0.7330  0.8572
17437THY    HP326387   2.504   4.596   5.499  0.3982  0.0271 -0.3552
17437THY    HP426388   2.615   4.601   5.348  2.7237  0.7120  0.5560
17437THY    CP326389   2.526   4.327   5.552  0.8033 -0.6743 -0.7497
17437THY    HP526390   2.547   4.220   5.550  1.3901  4.4589 -1.0027
17437THY    HP626391   2.417   4.336   5.555  0.6786 -1.4021 -1.8149
17437THY    HP726392   2.570   4.356   5.648 -2.6500  1.6183 -2.3720
17437THY    CA326393   2.836   4.362   5.514  0.3890  0.5877  0.4071
17437THY    HA326394   2.807   4.416   5.604 -0.5377 -0.3357  1.5158
17437THY    CA426395   2.967   4.312   5.489  0.4740 -0.3475  0.1638
17437THY    HA426396   3.043   4.342   5.560  0.8664 -1.3331  1.5779
17437THY    CA526397   2.992   4.249   5.366  0.5158 -1.0444  0.2920
17437THY    CM126398   3.127   4.195   5.337 -0.0889 -0.5051  0.5219
17437THY    HM126399   3.146   4.144   5.432  1.0469 -1.7606 -1.5215
17437THY    HM226400   3.198   4.275   5.310  2.1531  1.3713 -0.7112
17437THY    HM326401   3.122   4.123   5.255  1.2909 -1.8039  1.8276
17437THY    CA626402   2.896   4.245   5.262 -0.2610 -0.6341  0.6943
17437THY    HA626403   2.932   4.208   5.167  1.2839 -0.2883  1.2353
17438THY      O26404   5.274   3.644   4.921  0.3577 -0.8336  0.3919
17438THY     HO26405   5.185   3.612   4.896  0.5464 -1.5779  0.4255
17438THY    CA126406   5.261   3.778   4.951 -0.8287  0.2490 -0.2885
17438THY    CA226407   5.371   3.850   5.012  0.7838 -0.9470 -1.1066
17438THY    CP126408   5.495   3.768   5.048 -0.5290  0.1360 -0.2446
17438THY    HP126409   5.477   3.661   5.058 -3.8436  0.3750  0.2421
17438THY    CP226410   5.556   3.810   5.179 -0.5192  0.1873 -0.2034
17438THY    HP226411   5.491   3.821   5.267 -0.5947  0.0802  0.2160
17438THY    HP326412   5.604   3.907   5.164 -0.3977 -1.6005 -0.4997
17438THY    HP426413   5.638   3.742   5.206 -0.2821 -2.0572 -0.9045
17438THY    CP326414   5.607   3.786   4.945  0.1691 -0.4892  0.6309
17438THY    HP526415   5.565   3.784   4.843  0.3373 -0.5523 -0.7248
17438THY    HP626416   5.675   3.702   4.966 -2.1488  1.8438 -0.8009
17438THY    HP726417   5.661   3.881   4.944 -1.2903  0.4978  1.4955
17438THY    CA326418   5.347   3.987   5.044  0.4590  0.2587 -0.3879
17438THY    HA326419   5.416   4.056   5.091 -0.8430 -1.4970  2.2919
17438THY    CA426420   5.229   4.052   5.009  0.8926  0.2136 -0.3286
17438THY    HA426421   5.209   4.156   5.032  0.7362  2.6424 -0.8421
17438THY    CA526422   5.129   3.981   4.951  1.0983  0.3828  0.0220
17438THY    CM126423   4.995   4.042   4.918  0.4379  0.2904  0.1716
17438THY    HM126424   4.958   4.017   4.818 -0.2622 -0.0804  2.4642
17438THY    HM226425   5.005   4.151   4.915 -0.2513  0.5516  0.2453
17438THY    HM326426   4.918   4.014   4.991  0.2250 -0.6755 -1.9801
17438THY    CA626427   5.137   3.845   4.928 -0.4231  0.4819  0.2641
17438THY    HA626428   5.054   3.792   4.883  1.0079 -2.5696  0.3887
17439THY      O26429   5.981   8.044   1.920 -0.5396 -0.4362  0.2784
17439THY     HO26430   5.929   8.125   1.907  1.1455  0.4924  1.5907
17439THY    CA126431   6.004   8.040   2.055 -0.5658  0.0579  0.5208
17439THY    CA226432   6.079   7.937   2.119  0.2065  0.4090  0.1640
17439THY    CP126433   6.130   7.823   2.032 -0.0216  0.0942 -0.2069
17439THY    HP126434   6.079   7.821   1.935  0.5684 -0.2134 -2.2943
17439THY    CP226435   6.077   7.685   2.080 -0.2138 -0.4513 -0.3077
17439THY    HP226436   5.970   7.673   2.100  0.0135  0.7770 -0.4996
17439THY    HP326437   6.127   7.664   2.176 -1.4228 -0.2925 -2.8938
17439THY    HP426438   6.102   7.599   2.016  0.9764  2.1415 -2.0287
17439THY    CP326439   6.283   7.818   1.995  1.0232  0.3654 -0.3113
17439THY    HP526440   6.317   7.743   1.922  1.1391  0.4957 -0.3861
17439THY    HP626441   6.345   7.802   2.084 -1.0150  1.8440 -0.2642
17439THY    HP726442   6.305   7.916   1.949  0.7446 -0.1911 -0.5035
17439THY    CA326443   6.098   7.948   2.256  0.2892 -0.2641  0.5731
17439THY    HA326444   6.147   7.865   2.305  0.2432 -0.2928  0.5287
17439THY    CA426445   6.032   8.042   2.333  0.2727  0.4618  0.1979
17439THY    HA426446   6.039   8.029   2.441 -0.9821  0.2551 -2.8530
17439THY    CA526447   5.956   8.144   2.269 -0.0494  0.4672 -0.8269
17439THY    CM126448   5.876   8.260   2.332 -0.4445  0.2405  0.4836
17439THY    HM126449   5.871   8.342   2.259 -3.0214 -1.3206 -0.9370
17439THY    HM226450   5.928   8.287   2.425  0.2098  0.6523 -1.9044
17439THY    HM326451   5.770   8.243   2.354 -0.8677 -1.2503  1.0700
17439THY    CA626452   5.943   8.134   2.128 -0.3159  0.6691 -0.2148
17439THY    HA626453   5.875   8.200   2.075  2.5708 -5.1382 -1.2200
17440THY      O26454   7.196   0.323   2.650 -0.3729  0.1111  0.1787
17440THY     HO26455   7.238   0.345   2.734 -1.9732  0.7842  0.7876
17440THY    CA126456   7.081   0.404   2.635 -0.0292  0.3189 -0.0030
17440THY    CA226457   6.980   0.389   2.536  0.0190 -0.9426 -0.0920
17440THY    CP126458   7.008   0.291   2.418 -0.5260 -0.7286 -0.1096
17440THY    HP126459   7.044   0.199   2.466  1.4953  1.0025  1.4823
17440THY    CP226460   7.129   0.329   2.334 -0.1278  0.9977 -0.5441
17440THY    HP226461   7.215   0.374   2.386  0.6320  1.0533 -1.9964
17440THY    HP326462   7.103   0.407   2.262 -0.0488  1.2471 -0.2847
17440THY    HP426463   7.174   0.240   2.290 -0.3859  0.8671 -0.6089
17440THY    CP326464   6.884   0.260   2.333 -0.0378  0.7365  0.0762
17440THY    HP526465   6.895   0.168   2.274 -2.3136  0.8200 -0.3003
17440THY    HP626466   6.858   0.346   2.270 -0.9004  0.7658 -0.1544
17440THY    HP726467   6.790   0.248   2.388 -3.5461 -4.1669  1.7877
17440THY    CA326468   6.871   0.483   2.541  0.3917  0.4678  0.2303
17440THY    HA326469   6.793   0.486   2.465 -0.0987  0.8928 -1.1716
17440THY    CA426470   6.865   0.573   2.647 -0.7400 -0.9031 -0.3984
17440THY    HA426471   6.780   0.640   2.658 -0.0918  0.8563  0.1859
17440THY    CA526472   6.967   0.581   2.739  0.7506 -1.3241  0.1001
17440THY    CM126473   6.959   0.677   2.852 -0.0581 -0.8063 -0.2150
17440THY    HM126474   6.880   0.640   2.918  1.3498  1.0491 -0.0711
17440THY    HM226475   6.927   0.776   2.817 -0.8934 -1.4234 -0.6830
17440THY    HM326476   7.049   0.670   2.914 -0.4454 -0.2339 -0.1808
17440THY    CA626477   7.072   0.503   2.732 -0.1877  0.4538  0.4567
17440THY    HA626478   7.150   0.524   2.805 -0.8727  0.9969  1.1519
17441THY      O26479   4.164   5.271   5.022  0.3222 -0.0516  0.3972
17441THY     HO26480   4.182   5.333   4.950  0.2079 -0.1189  0.3525
17441THY    CA126481   4.072   5.177   4.983  0.4034  0.0902 -0.3063
17441THY    CA226482   3.995   5.103   5.073 -0.7855  0.6692 -0.0524
17441THY    CP126483   4.013   5.124   5.220  0.3441 -0.0899 -0.0595
17441THY    HP126484   4.108   5.170   5.250  0.0527  1.4772 -0.4145
17441THY    CP226485   4.013   4.998   5.294 -0.3825 -0.3424  0.1885
17441THY    HP226486   3.918   4.945   5.299  1.3159 -1.4361 -3.2591
17441THY    HP326487   4.049   5.024   5.394  0.5972 -0.9756  1.3873
17441THY    HP426488   4.089   4.936   5.245 -0.1907 -1.3869  1.2053
17441THY    CP326489   3.909   5.218   5.263  0.0726  0.2709  0.0984
17441THY    HP526490   3.902   5.297   5.187  1.6628 -0.2782 -0.2477
17441THY    HP626491   3.939   5.264   5.358  0.2662 -0.8198  2.3698
17441THY    HP726492   3.810   5.172   5.270  0.1874 -0.6197 -0.3113
17441THY    CA326493   3.898   5.009   5.020  0.4821 -0.7219  0.4513
17441THY    HA326494   3.826   4.963   5.087  0.7040 -1.1734 -0.5615
17441THY    CA426495   3.887   4.988   4.880  0.2230  0.2951 -0.2265
17441THY    HA426496   3.810   4.921   4.844  0.7205  0.8881 -1.1447
17441THY    CA526497   3.971   5.058   4.797  0.4118 -0.2928 -0.2240
17441THY    CM126498   3.944   5.051   4.647  0.2461 -0.0460 -0.0425
17441THY    HM126499   3.852   5.109   4.627 -0.5544 -0.6239 -1.4714
17441THY    HM226500   3.929   4.949   4.610 -2.2801 -3.7338  1.4463
17441THY    HM326501   4.025   5.095   4.588 -1.3968 -0.8044  2.1445
17441THY    CA626502   4.051   5.157   4.846 -0.1542  0.6819  0.7774
17441THY    HA626503   4.104   5.221   4.776 -0.4257  1.0529  1.4185
17442THY      O26504   5.308   0.356   2.053  0.1865 -0.2896 -1.2288
17442THY     HO26505   5.261   0.415   1.993 -0.5588  1.1544 -0.3036
17442THY    CA126506   5.437   0.403   2.052 -0.1029 -0.1643 -0.5120
17442THY    CA226507   5.535   0.369   2.143 -0.1466  0.1480  0.2743
17442THY    CP126508   5.501   0.269   2.256 -0.0949 -0.8594 -0.2249
17442THY    HP126509   5.396   0.237   2.254  0.2531 -0.3672 -1.4718
17442THY    CP226510   5.529   0.326   2.396  0.8371 -0.5788 -0.4087
17442THY    HP226511   5.634   0.352   2.413  0.4150  0.2132  0.8123
17442THY    HP326512   5.493   0.257   2.473 -1.1711  0.4832  1.6815
17442THY    HP426513   5.475   0.419   2.413  0.3605  2.3715 -1.1373
17442THY    CP326514   5.563   0.135   2.231 -0.6851 -0.5111  0.1819
17442THY    HP526515   5.669   0.148   2.208 -0.4288  1.6185  2.6094
17442THY    HP626516   5.509   0.081   2.152 -2.3077  0.6865 -0.0121
17442THY    HP726517   5.565   0.081   2.326  0.5541  0.4361  1.8064
17442THY    CA326518   5.670   0.413   2.124  0.1467 -0.7270 -0.4410
17442THY    HA326519   5.739   0.374   2.198 -0.7333  0.9332  1.0213
17442THY    CA426520   5.697   0.500   2.011  0.4455 -0.0166  0.5011
17442THY    HA426521   5.798   0.517   1.976  0.8524  0.7221 -0.3245
17442THY    CA526522   5.598   0.536   1.927 -0.1510  0.4573 -0.2203
17442THY    CM126523   5.622   0.634   1.814  0.0214 -0.2968 -0.0903
17442THY    HM126524   5.729   0.638   1.790  0.0684  0.0814  0.9626
17442THY    HM226525   5.600   0.732   1.857 -0.3062 -0.1484 -0.2293
17442THY    HM326526   5.571   0.603   1.722  1.1541 -0.5927 -1.1791
17442THY    CA626527   5.471   0.493   1.949  0.3999 -0.5134 -0.1974
17442THY    HA626528   5.392   0.531   1.884 -0.1281 -0.1118 -0.5844
17443THY      O26529   3.359   1.005   3.075  0.1900 -0.1227  0.1210
17443THY     HO26530   3.291   1.072   3.092 -1.5105 -2.5503 -0.8413
17443THY    CA126531   3.286   0.910   3.014  0.1933 -0.8390  0.7420
17443THY    CA226532   3.350   0.802   2.951 -0.6592 -0.3881 -0.2963
17443THY    CP126533   3.500   0.798   2.949 -0.8799  0.5870 -0.3711
17443THY    HP126534   3.544   0.847   3.037  0.8397  0.1820 -1.1225
17443THY    CP226535   3.568   0.878   2.827  0.3135 -0.1902 -0.3244
17443THY    HP226536   3.674   0.899   2.845  0.2588 -0.2813  0.0253
17443THY    HP326537   3.523   0.977   2.815 -0.9923  0.6800 -0.7847
17443THY    HP426538   3.558   0.828   2.730 -1.9322 -1.4991  2.3970
17443THY    CP326539   3.551   0.654   2.944  0.3690  0.0804 -0.9937
17443THY    HP526540   3.658   0.634   2.932 -0.0005 -2.2460 -1.9799
17443THY    HP626541   3.507   0.614   2.852 -0.2669  0.2527 -0.6963
17443THY    HP726542   3.515   0.596   3.030  1.1159  0.5126 -0.8260
17443THY    CA326543   3.264   0.704   2.900 -0.0367 -0.1946  0.3905
17443THY    HA326544   3.305   0.613   2.856  1.7811  0.6889  0.7476
17443THY    CA426545   3.128   0.727   2.879  0.3377 -0.3518 -0.2548
17443THY    HA426546   3.062   0.656   2.831 -1.0141  1.1776 -0.0827
17443THY    CA526547   3.072   0.835   2.945 -0.8029 -0.1386 -0.1410
17443THY    CM126548   2.928   0.868   2.914 -0.0728 -0.1891 -0.1238
17443THY    HM126549   2.921   0.892   2.807  0.8549 -0.0973  0.5951
17443THY    HM226550   2.892   0.952   2.975  0.3983  0.9903 -0.7604
17443THY    HM326551   2.868   0.780   2.940 -0.0557  2.6917  0.6094
17443THY    CA626552   3.150   0.923   3.012 -0.5236  0.0305  0.1665
17443THY    HA626553   3.104   1.014   3.047  0.0362  0.3695  0.3203
17444THY      O26554   8.003   6.521   7.540 -0.6326 -0.1460 -0.3581
17444THY     HO26555   8.088   6.569   7.537 -0.5980  1.0401 -0.3247
17444THY    CA126556   7.917   6.595   7.464  0.1147  0.8622  0.0301
17444THY    CA226557   7.781   6.563   7.463  0.0016  0.3053 -0.2856
17444THY    CP126558   7.719   6.435   7.536 -0.3580 -0.4792  0.4199
17444THY    HP126559   7.790   6.381   7.599 -1.3182 -0.4894 -0.9136
17444THY    CP226560   7.668   6.333   7.429 -0.1973  0.2329  0.5045
17444THY    HP226561   7.746   6.302   7.359 -0.4205  0.7025 -1.2175
17444THY    HP326562   7.584   6.379   7.376  1.6826 -4.9538 -1.3493
17444THY    HP426563   7.619   6.246   7.473 -1.7466 -2.2150  0.0628
17444THY    CP326564   7.600   6.472   7.624 -0.1471 -0.0927 -0.0971
17444THY    HP526565   7.511   6.518   7.579 -1.5872  1.2578 -1.4283
17444THY    HP626566   7.635   6.545   7.698 -0.9829  0.3807 -0.1571
17444THY    HP726567   7.572   6.377   7.672  0.6083 -1.0474 -0.8206
17444THY    CA326568   7.697   6.640   7.375 -0.0749 -0.0139  0.4249
17444THY    HA326569   7.594   6.609   7.361  0.5910 -1.5655 -1.2236
17444THY    CA426570   7.753   6.758   7.317  0.0730 -0.0540  0.5962
17444THY    HA426571   7.680   6.815   7.262 -2.5597  1.7421 -0.8064
17444THY    CA526572   7.885   6.788   7.318  0.4042  0.0731 -0.7770
17444THY    CM126573   7.942   6.904   7.242 -0.0295  0.2653  0.0604
17444THY    HM126574   8.030   6.880   7.181 -0.3396  0.4706 -1.7136
17444THY    HM226575   7.959   6.989   7.309 -0.1676 -0.9365  1.0752
17444THY    HM326576   7.862   6.938   7.174  0.1908 -0.1379 -0.2148
17444THY    CA626577   7.969   6.710   7.395 -0.1826 -0.6091  0.9085
17444THY    HA626578   8.077   6.719   7.392 -0.0373 -0.0214 -0.3581
17445THY      O26579   5.643   6.220   3.545  0.1126 -0.2496 -0.2907
17445THY     HO26580   5.667   6.130   3.571  0.6563 -1.5392 -0.5425
17445THY    CA126581   5.742   6.265   3.464  0.4891 -0.5456 -0.2259
17445THY    CA226582   5.734   6.380   3.383  0.4049 -0.3762  0.5813
17445THY    CP126583   5.615   6.466   3.382  0.9062 -1.3337  0.1757
17445THY    HP126584   5.539   6.425   3.449 -0.4424 -2.2162  1.1346
17445THY    CP226585   5.548   6.472   3.247  0.1292 -0.0846 -0.2434
17445THY    HP226586   5.612   6.527   3.176  0.9514  1.2667  0.5878
17445THY    HP326587   5.460   6.537   3.248  0.8783  1.2923  0.7981
17445THY    HP426588   5.531   6.375   3.199  0.8057  1.5384 -1.1863
17445THY    CP326589   5.647   6.610   3.438  0.1815 -0.3330  0.3537
17445THY    HP526590   5.706   6.597   3.529 -0.0162 -0.2490  0.0546
17445THY    HP626591   5.566   6.680   3.461 -1.1083  0.8491 -1.4584
17445THY    HP726592   5.723   6.656   3.374  1.8399  2.3991  1.6916
17445THY    CA326593   5.838   6.405   3.285  0.7340 -0.4458 -0.4196
17445THY    HA326594   5.838   6.490   3.218  0.0195  0.3771  0.2458
17445THY    CA426595   5.946   6.312   3.276  0.2454  0.0928 -0.9359
17445THY    HA426596   6.018   6.320   3.196 -1.7279 -1.8101 -1.1908
17445THY    CA526597   5.962   6.211   3.371 -0.2591 -0.4819 -1.1250
17445THY    CM126598   6.085   6.133   3.390  0.2510 -0.1469 -0.1704
17445THY    HM126599   6.115   6.099   3.489  3.3989 -0.2892  1.8380
17445THY    HM226600   6.164   6.204   3.365 -0.6400 -0.1654  0.8306
17445THY    HM326601   6.077   6.053   3.315  0.3442 -0.0702 -0.2501
17445THY    CA626602   5.860   6.193   3.465 -0.3551  0.7677  0.5899
17445THY    HA626603   5.860   6.106   3.530 -0.1427 -0.2563 -0.1955
17446THY      O26604   0.555   1.234   3.394  0.2608 -0.2734  0.4666
17446THY     HO26605   0.602   1.315   3.366  3.0181  3.1937  0.3444
17446THY    CA126606   0.628   1.125   3.356  0.2890  1.0599  0.5246
17446THY    CA226607   0.573   1.002   3.314 -0.3164  0.1037 -0.1240
17446THY    CP126608   0.422   0.970   3.345 -0.4019 -0.3794  0.1346
17446THY    HP126609   0.382   1.034   3.424 -1.9422  0.1851 -1.4215
17446THY    CP226610   0.411   0.831   3.391 -0.0122 -0.1898  0.0878
17446THY    HP226611   0.427   0.755   3.314  0.5749  0.4518 -0.4478
17446THY    HP326612   0.311   0.827   3.435 -0.3401 -0.6851  1.8550
17446THY    HP426613   0.474   0.819   3.481 -0.4926  0.0468 -0.7022
17446THY    CP326614   0.338   0.987   3.222  0.6064  0.4634  0.1294
17446THY    HP526615   0.350   1.085   3.173 -0.7750 -0.2735 -0.0494
17446THY    HP626616   0.233   0.984   3.252  0.5778  0.4774  1.0312
17446THY    HP726617   0.358   0.910   3.147 -3.8562 -3.1522  2.0152
17446THY    CA326618   0.655   0.914   3.235  0.1600 -1.2580  0.0252
17446THY    HA326619   0.614   0.819   3.202  1.8759 -0.5788 -1.0009
17446THY    CA426620   0.789   0.944   3.224 -0.3013  0.5396 -0.1774
17446THY    HA426621   0.854   0.876   3.170 -0.2949  0.0262  0.2367
17446THY    CA526622   0.847   1.054   3.286 -0.4333 -0.1631  0.1389
17446THY    CM126623   0.998   1.067   3.271 -0.3196 -0.0919 -0.3011
17446THY    HM126624   1.021   1.172   3.250  2.9231  0.2213 -0.8381
17446THY    HM226625   1.033   1.002   3.190 -2.8637 -0.0418 -1.8652
17446THY    HM326626   1.057   1.039   3.360  1.7511 -1.5010 -0.6293
17446THY    CA626627   0.762   1.154   3.338  1.0078 -0.3615 -0.2220
17446THY    HA626628   0.805   1.248   3.371  1.5035  3.2571 -1.5471
17447THY      O26629   0.617   7.216   2.794 -0.0617  0.0485  0.4832
17447THY     HO26630   0.568   7.288   2.836  0.6776  1.0646  0.4086
17447THY    CA126631   0.715   7.190   2.882 -0.0506  0.0588  0.4550
17447THY    CA226632   0.817   7.086   2.855  0.3056 -0.6714 -0.2624
17447THY    CP126633   0.817   7.016   2.722 -1.3363  0.4442 -0.3804
17447THY    HP126634   0.756   7.070   2.649  0.2422 -0.1249  0.6715
17447THY    CP226635   0.748   6.877   2.744 -0.0238  0.2538 -0.6959
17447THY    HP226636   0.641   6.894   2.755 -0.0144  0.5865 -0.8402
17447THY    HP326637   0.789   6.826   2.832 -1.9739  1.2457 -0.6061
17447THY    HP426638   0.766   6.821   2.651 -1.2429 -0.9026  0.7382
17447THY    CP326639   0.956   7.002   2.672 -0.2530 -0.8425  0.2539
17447THY    HP526640   1.007   7.097   2.692  0.2639  3.8621 -0.7671
17447THY    HP626641   0.959   6.970   2.567 -0.2258 -0.9637  0.6488
17447THY    HP726642   1.013   6.933   2.736  0.2855 -1.0724  0.4755
17447THY    CA326643   0.916   7.062   2.956  0.2582 -0.2123  0.1175
17447THY    HA326644   1.003   6.998   2.947 -0.0809  0.3497 -0.4310
17447THY    CA426645   0.917   7.141   3.071  0.7532  0.7227 -0.0820
17447THY    HA426646   0.992   7.120   3.148 -1.8733  3.3349 -0.5188
17447THY    CA526647   0.820   7.236   3.096 -0.5107 -0.2946 -0.1274
17447THY    CM126648   0.813   7.285   3.237  0.3654 -0.1448 -0.5616
17447THY    HM126649   0.914   7.273   3.279 -0.0621  0.8647 -0.7266
17447THY    HM226650   0.740   7.232   3.299 -0.8473 -1.2202 -0.2066
17447THY    HM326651   0.786   7.391   3.239  1.7406 -0.7834 -0.1729
17447THY    CA626652   0.714   7.251   3.004  0.3710  0.4650 -0.9483
17447THY    HA626653   0.631   7.315   3.034 -0.5742  0.9202 -2.3499
17448THY      O26654   8.127   1.476   3.917 -0.1397  0.5036 -0.1306
17448THY     HO26655   8.106   1.525   3.835  1.4792  1.5146  2.4767
17448THY    CA126656   8.047   1.531   4.009  0.3821 -0.5489 -0.4621
17448THY    CA226657   8.047   1.480   4.141 -0.2810  0.2520 -0.2641
17448THY    CP126658   8.148   1.371   4.182 -0.7578  0.2182  0.4788
17448THY    HP126659   8.227   1.353   4.109 -1.3411 -0.2073 -0.3962
17448THY    CP226660   8.068   1.244   4.201 -0.4426 -0.3056 -0.0681
17448THY    HP226661   8.035   1.216   4.101 -0.9549 -0.5741  1.4103
17448THY    HP326662   7.986   1.258   4.273 -0.1265  0.4566 -1.7927
17448THY    HP426663   8.136   1.163   4.232  2.2895 -0.8209  1.9119
17448THY    CP326664   8.223   1.416   4.305  0.1337 -0.0309  0.0998
17448THY    HP526665   8.297   1.339   4.333  0.3869  1.3117  0.8071
17448THY    HP626666   8.158   1.426   4.392 -1.8756 -1.6624  2.5372
17448THY    HP726667   8.262   1.516   4.285 -1.6067 -0.7793  0.6645
17448THY    CA326668   7.958   1.530   4.232 -0.1290 -0.5326 -0.0908
17448THY    HA326669   7.958   1.493   4.334 -1.3206 -0.7066 -0.6128
17448THY    CA426670   7.870   1.640   4.193 -0.5973 -1.0376  0.4313
17448THY    HA426671   7.812   1.678   4.277  0.6826  1.1492 -2.0311
17448THY    CA526672   7.863   1.686   4.058 -0.2870  0.3287 -0.2960
17448THY    CM126673   7.784   1.814   4.029 -0.2765 -0.2298  0.1637
17448THY    HM126674   7.713   1.838   4.109 -0.9906 -1.1356  1.2064
17448THY    HM226675   7.706   1.798   3.953 -0.6257 -0.1370  1.3259
17448THY    HM326676   7.839   1.901   3.990 -1.1058 -0.8510  0.4284
17448THY    CA626677   7.956   1.636   3.968 -0.4120  0.1574  0.1189
17448THY    HA626678   7.952   1.681   3.869  0.3534  0.6167  1.2574
17449THY      O26679   6.523   2.322   5.055  0.3161 -0.9137  0.3511
17449THY     HO26680   6.489   2.312   4.965  0.7848 -1.2456  1.6037
17449THY    CA126681   6.481   2.216   5.129  0.1947  0.0735 -0.6070
17449THY    CA226682   6.504   2.197   5.267  0.1645 -0.4212 -0.3867
17449THY    CP126683   6.562   2.312   5.347 -1.0107  0.3483  0.7318
17449THY    HP126684   6.584   2.399   5.285  0.2386  1.5713  1.3372
17449THY    CP226685   6.700   2.287   5.415  0.0628  0.0882 -0.2421
17449THY    HP226686   6.777   2.267   5.339  0.1555 -0.4106  1.7538
17449THY    HP326687   6.699   2.199   5.480 -1.2799 -0.3482 -0.5698
17449THY    HP426688   6.747   2.362   5.480  0.6962 -1.1445  0.4521
17449THY    CP326689   6.453   2.354   5.445  0.4327  0.4180  0.2986
17449THY    HP526690   6.453   2.462   5.464 -0.8441 -0.2940  0.4416
17449THY    HP626691   6.472   2.299   5.538  0.7572  1.1204  1.5553
17449THY    HP726692   6.352   2.325   5.416  0.8274 -0.6334 -0.0934
17449THY    CA326693   6.469   2.075   5.332 -0.1086  0.4585 -0.7424
17449THY    HA326694   6.483   2.073   5.439 -2.0571  0.7640  0.0932
17449THY    CA426695   6.418   1.972   5.255  0.5045  0.5504  0.5093
17449THY    HA426696   6.395   1.877   5.302  0.4529  1.7442  1.0798
17449THY    CA526697   6.403   1.989   5.118 -1.2642 -0.1473 -0.3214
17449THY    CM126698   6.362   1.867   5.041 -0.5567  0.0690 -0.2811
17449THY    HM126699   6.425   1.785   5.077 -2.4404  2.2276 -0.8948
17449THY    HM226700   6.378   1.886   4.934  0.9726  0.7346  2.9507
17449THY    HM326701   6.259   1.838   5.068 -0.8186  0.0664  0.6007
17449THY    CA626702   6.435   2.107   5.056  0.0405  0.3301  0.0677
17449THY    HA626703   6.440   2.123   4.948 -0.1579  0.4932  1.3558
17450THY      O26704   6.420   6.638   2.017  0.0055 -0.7817 -0.2908
17450THY     HO26705   6.460   6.609   2.101  1.0074 -0.9807  0.4659
17450THY    CA126706   6.323   6.722   2.059 -0.3706  0.2811  0.2538
17450THY    CA226707   6.200   6.742   1.983 -0.0437  0.7454 -0.2842
17450THY    CP126708   6.174   6.648   1.865  0.6001  0.4873 -0.3272
17450THY    HP126709   6.262   6.615   1.809  0.2673 -0.5295  0.4634
17450THY    CP226710   6.074   6.704   1.758 -0.3444  0.1342 -0.0127
17450THY    HP226711   6.114   6.793   1.708  0.8363  1.7535  0.4049
17450THY    HP326712   5.970   6.709   1.791 -0.6306  0.1534 -3.6676
17450THY    HP426713   6.068   6.630   1.677 -2.4823 -0.0257  0.2820
17450THY    CP326714   6.108   6.521   1.922 -0.3201 -0.9847 -0.3682
17450THY    HP526715   6.094   6.447   1.843 -3.6034  0.2527 -1.2649
17450THY    HP626716   6.007   6.532   1.963  0.1315  0.6152 -1.7135
17450THY    HP726717   6.172   6.484   2.004  0.3703 -1.7672 -0.9483
17450THY    CA326718   6.107   6.834   2.023 -0.3641 -0.7333 -0.6473
17450THY    HA326719   6.015   6.851   1.967 -0.5179 -0.0974  0.7787
17450THY    CA426720   6.136   6.920   2.133 -0.4347  0.1046 -0.5145
17450THY    HA426721   6.079   7.007   2.163  1.9106  0.2121  1.0886
17450THY    CA526722   6.249   6.894   2.205  0.3893  0.5075  0.1444
17450THY    CM126723   6.275   6.974   2.331 -0.1450  0.3798 -0.3013
17450THY    HM126724   6.262   6.910   2.418  1.7095  0.6022 -0.4288
17450THY    HM226725   6.200   7.054   2.346 -0.8389  2.5170 -1.2808
17450THY    HM326726   6.374   7.020   2.330 -0.4082 -2.3646  0.3934
17450THY    CA626727   6.351   6.803   2.163  0.0703  0.4625  0.4078
17450THY    HA626728   6.444   6.798   2.220  1.3830 -1.5454  0.8102
17451THY      O26729   8.382   4.153   5.752 -0.2819  0.5088  0.5257
17451THY     HO26730   8.452   4.216   5.778  1.2744  1.9614 -1.6619
17451THY    CA126731   8.322   4.130   5.874 -0.3588  1.0928 -0.1213
17451THY    CA226732   8.203   4.051   5.871  0.6506 -0.4703 -0.0999
17451THY    CP126733   8.144   3.991   5.745 -0.0198 -0.4993 -0.0666
17451THY    HP126734   8.211   3.991   5.658  0.3893 -0.2861 -2.7658
17451THY    CP226735   8.015   4.065   5.701  0.5869 -0.0987  0.3514
17451THY    HP226736   8.025   4.170   5.669  0.1337  0.7785  0.6726
17451THY    HP326737   7.933   4.069   5.773  0.3265 -0.3799  0.1776
17451THY    HP426738   7.959   4.017   5.620  1.3701  0.1356 -0.9898
17451THY    CP326739   8.106   3.841   5.769  0.1372  0.2575 -0.8695
17451THY    HP526740   8.026   3.829   5.843 -1.8478 -1.9130 -1.7412
17451THY    HP626741   8.187   3.778   5.808  0.6199 -1.3725 -1.3086
17451THY    HP726742   8.069   3.795   5.677 -0.9022 -0.1933  0.8018
17451THY    CA326743   8.131   4.030   5.992 -0.2732 -0.1481 -0.7638
17451THY    HA326744   8.027   3.999   5.986  0.0959 -1.9415 -1.8406
17451THY    CA426745   8.198   4.067   6.111 -0.1385 -0.4621  0.0379
17451THY    HA426746   8.152   4.060   6.209  0.8915  0.3906  3.2201
17451THY    CA526747   8.319   4.139   6.112 -0.0083  0.6145 -0.3742
17451THY    CM126748   8.369   4.211   6.238 -0.2095 -0.0278 -0.0879
17451THY    HM126749   8.473   4.190   6.266  0.0130 -0.6993  0.0950
17451THY    HM226750   8.319   4.196   6.335  1.2269  0.7138 -0.3087
17451THY    HM326751   8.372   4.318   6.213 -2.3791  0.2836  0.1000
17451THY    CA626752   8.375   4.172   5.990 -0.3525  0.3438  0.0436
17451THY    HA626753   8.464   4.233   5.989  0.7415  2.6370 -1.3629
17452THY      O26754   8.660   8.664   3.059  0.0178 -0.0561  0.9286
17452THY     HO26755   8.595   8.663   3.131  0.3257  0.2425  1.7779
17452THY    CA126756   8.703   8.537   3.039  0.1857  0.3153 -0.6694
17452THY    CA226757   8.770   8.505   2.928  0.6893 -0.0867  0.1307
17452THY    CP126758   8.807   8.603   2.821 -0.3975 -0.0962  0.0919
17452THY    HP126759   8.812   8.702   2.869 -1.1031  0.3220 -0.0641
17452THY    CP226760   8.685   8.625   2.733 -0.5859 -0.0810 -0.1462
17452THY    HP226761   8.611   8.670   2.800  0.2363  0.5190  0.3515
17452THY    HP326762   8.644   8.529   2.702 -0.1434  1.3019 -0.8152
17452THY    HP426763   8.695   8.689   2.644 -0.4989  0.2101  0.2507
17452THY    CP326764   8.933   8.581   2.733 -0.5697  0.1510 -0.1901
17452THY    HP526765   8.950   8.669   2.670 -1.5550  0.7982  0.4808
17452THY    HP626766   8.912   8.490   2.674 -0.9041  0.1354 -0.1015
17452THY    HP726767   9.019   8.553   2.795 -0.7012  0.9589  1.1191
17452THY    CA326768   8.802   8.368   2.903  0.4510  0.4111 -0.6425
17452THY    HA326769   8.853   8.333   2.814 -1.0879 -1.2145  1.0766
17452THY    CA426770   8.775   8.273   3.001  0.0576  0.1221 -0.6015
17452THY    HA426771   8.820   8.176   2.983 -1.4024  0.5949 -1.4030
17452THY    CA526772   8.706   8.308   3.112  0.7070  0.2335 -0.1478
17452THY    CM126773   8.677   8.213   3.218  0.0235  0.7204 -0.2542
17452THY    HM126774   8.759   8.141   3.222 -0.7227  0.9558 -1.1100
17452THY    HM226775   8.585   8.156   3.200 -1.5318  0.6898  2.1241
17452THY    HM326776   8.658   8.266   3.313 -0.0540 -0.0002  1.0381
17452THY    CA626777   8.668   8.442   3.131  0.6085 -0.1487  0.6071
17452THY    HA626778   8.614   8.465   3.222 -2.0078 -1.2304 -0.7682
17453THY      O26779   4.837   8.045   4.097  0.7392 -0.2283  0.2894
17453THY     HO26780   4.860   8.137   4.074  1.6511  1.8282  0.6167
17453THY    CA126781   4.909   7.946   4.028 -0.0401 -0.8043 -0.3579
17453THY    CA226782   4.859   7.816   4.018  0.6919 -0.3566 -0.2013
17453THY    CP126783   4.717   7.782   4.063 -0.5563 -0.0970 -0.7705
17453THY    HP126784   4.662   7.871   4.031  0.7688  2.7551  1.2327
17453THY    CP226785   4.706   7.786   4.222 -0.4460  0.0995  0.1650
17453THY    HP226786   4.769   7.711   4.272 -0.4507  0.8251  0.6385
17453THY    HP326787   4.602   7.774   4.251 -0.1532  1.2203  0.2646
17453THY    HP426788   4.734   7.881   4.269  0.1386  0.0125  0.0430
17453THY    CP326789   4.664   7.655   4.014 -0.0558  0.2402  0.7708
17453THY    HP526790   4.560   7.653   4.049 -0.0968  0.2269  2.0941
17453THY    HP626791   4.721   7.572   4.058 -0.1615  0.5169  0.8442
17453THY    HP726792   4.648   7.654   3.906 -2.6255  0.5322 -0.6246
17453THY    CA326793   4.939   7.716   3.958 -0.2641  0.0285  1.0550
17453THY    HA326794   4.901   7.615   3.957  0.6618 -1.8260  0.6696
17453THY    CA426795   5.068   7.753   3.907  0.2647 -0.2249  0.6638
17453THY    HA426796   5.130   7.683   3.852 -0.0036 -0.1589  0.3702
17453THY    CA526797   5.118   7.881   3.931 -0.3608 -0.0923 -1.3227
17453THY    CM126798   5.260   7.921   3.885 -0.1041 -0.1675 -0.4366
17453THY    HM126799   5.270   8.026   3.857  1.7925  0.0555 -0.5371
17453THY    HM226800   5.276   7.867   3.791 -3.5446 -0.4840 -1.1422
17453THY    HM326801   5.335   7.896   3.961  2.5040 -1.6205  2.3156
17453THY    CA626802   5.042   7.981   3.991  0.1429 -0.4182  0.4759
17453THY    HA626803   5.082   8.081   4.005  1.3070  0.9649 -0.1513
17454THY      O26804   7.112   1.915   5.648  0.3073 -0.2377  0.3210
17454THY     HO26805   7.191   1.859   5.646  1.2519  0.3688  1.5834
17454THY    CA126806   7.053   1.922   5.769  0.3314 -0.0322 -0.6127
17454THY    CA226807   7.019   2.043   5.831  0.2896  0.2267 -0.7288
17454THY    CP126808   7.027   2.172   5.762  0.1485  0.2993  0.1667
17454THY    HP126809   7.053   2.154   5.657  2.0064  0.7032  0.3503
17454THY    CP226810   7.130   2.274   5.829  1.0735  0.2825  0.7090
17454THY    HP226811   7.128   2.266   5.938  3.3266  0.3388  0.2011
17454THY    HP326812   7.115   2.376   5.791 -0.1892 -0.3931  0.2917
17454THY    HP426813   7.231   2.243   5.799  0.7470 -1.8015  1.4960
17454THY    CP326814   6.890   2.243   5.762  0.3688 -0.0159  0.0221
17454THY    HP526815   6.851   2.272   5.860  0.1247 -0.3805  0.9702
17454THY    HP626816   6.813   2.190   5.705  1.1667 -1.3526  0.2428
17454THY    HP726817   6.896   2.335   5.701 -3.1428 -0.9551 -0.2360
17454THY    CA326818   6.978   2.039   5.965  0.3421  0.0303 -0.2411
17454THY    HA326819   6.954   2.129   6.021 -1.8707  0.8733 -1.2654
17454THY    CA426820   6.947   1.921   6.037 -0.4868  0.3682  0.0999
17454THY    HA426821   6.922   1.914   6.142  2.0370  1.0011 -0.2337
17454THY    CA526822   6.967   1.801   5.967 -0.1563 -0.1055  0.0996
17454THY    CM126823   6.955   1.673   6.034  0.1947 -0.3595 -0.6762
17454THY    HM126824   6.983   1.691   6.138 -1.5140 -0.2669  1.9793
17454THY    HM226825   7.014   1.592   5.990 -1.6671  1.3997 -3.1529
17454THY    HM326826   6.850   1.641   6.032  0.1304  0.8678 -0.5950
17454THY    CA626827   7.017   1.803   5.833 -0.6255  0.4455  0.2429
17454THY    HA626828   7.028   1.713   5.773 -1.8396 -2.2805  1.7743
17455THY      O26829   6.062   7.749   3.373 -0.0041  0.1035 -0.2352
17455THY     HO26830   6.036   7.758   3.467  0.7081  0.4041 -1.1704
17455THY    CA126831   6.146   7.852   3.341  0.5279  0.0934  0.0776
17455THY    CA226832   6.202   7.853   3.209 -0.4094 -0.1436  0.0294
17455THY    CP126833   6.160   7.751   3.108  0.3266  0.0994  0.1262
17455THY    HP126834   6.102   7.667   3.147  1.0361  1.3175  0.1809
17455THY    CP226835   6.284   7.686   3.041  0.0620 -0.0000  0.7252
17455THY    HP226836   6.338   7.769   2.993 -0.5062  1.2462  1.8420
17455THY    HP326837   6.261   7.617   2.958  0.8199 -0.2172  0.7244
17455THY    HP426838   6.356   7.642   3.110  0.3759 -1.0445 -0.4814
17455THY    CP326839   6.078   7.815   2.994 -0.6913  0.4206 -0.3031
17455THY    HP526840   6.045   7.736   2.926 -0.8631 -0.1801  0.2741
17455THY    HP626841   6.143   7.886   2.942 -1.0218 -0.7805 -0.8678
17455THY    HP726842   5.986   7.856   3.038 -0.4467 -0.0645  0.8037
17455THY    CA326843   6.284   7.961   3.179 -0.2639 -0.0001  0.2364
17455THY    HA326844   6.337   7.963   3.084 -0.5392 -0.1480  0.8121
17455THY    CA426845   6.303   8.060   3.274 -0.1529  0.0144 -0.0507
17455THY    HA426846   6.363   8.148   3.250  1.7397  1.5506 -0.8509
17455THY    CA526847   6.235   8.061   3.397  0.2652 -0.0658 -0.3988
17455THY    CM126848   6.256   8.166   3.508 -0.0364  0.0489 -0.2408
17455THY    HM126849   6.305   8.249   3.458 -0.2222 -1.3957 -0.9664
17455THY    HM226850   6.315   8.124   3.590  1.5510 -1.3200 -0.7985
17455THY    HM326851   6.165   8.211   3.550 -0.8362 -0.5790 -1.2125
17455THY    CA626852   6.159   7.953   3.433  0.5708  0.0299  0.0877
17455THY    HA626853   6.100   7.959   3.524  0.1219 -0.3498  2.2666
17456THY      O26854   2.749   1.869   7.674 -0.2767 -0.5226 -0.1736
17456THY     HO26855   2.727   1.935   7.605 -3.7698  0.1765 -0.3950
17456THY    CA126856   2.665   1.763   7.660 -0.2832  0.3638  0.0810
17456THY    CA226857   2.628   1.681   7.776  0.1486  0.7062  0.2486
17456THY    CP126858   2.671   1.709   7.921 -0.2417 -0.2994  0.4124
17456THY    HP126859   2.749   1.785   7.926 -0.8009  0.6413  0.9424
17456THY    CP226860   2.733   1.577   7.981 -0.3054  0.6368 -0.1303
17456THY    HP226861   2.807   1.551   7.905  0.8687  1.2827  1.2038
17456THY    HP326862   2.669   1.489   7.994  2.2891 -0.6504 -2.3353
17456THY    HP426863   2.792   1.582   8.074  0.2159  0.3341 -0.5128
17456THY    CP326864   2.558   1.775   7.996  0.0763 -0.1012  0.0230
17456THY    HP526865   2.599   1.825   8.085  1.2523  0.8711 -2.4981
17456THY    HP626866   2.479   1.708   8.031  1.6062  1.3124 -1.1271
17456THY    HP726867   2.531   1.849   7.919  4.8283 -1.8704  0.3269
17456THY    CA326868   2.537   1.567   7.751 -0.5264  0.4398 -0.1495
17456THY    HA326869   2.517   1.503   7.836  0.0417  0.7192  0.0310
17456THY    CA426870   2.480   1.550   7.621  0.1497  0.3200 -0.3726
17456THY    HA426871   2.416   1.465   7.600  0.8385 -2.0260 -0.3812
17456THY    CA526872   2.528   1.632   7.513 -0.2847 -0.6957  0.0209
17456THY    CM126873   2.482   1.632   7.369  0.3859 -0.3312  0.2297
17456THY    HM126874   2.417   1.720   7.355  0.5845  0.9169  0.5951
17456THY    HM226875   2.415   1.551   7.338 -1.1869  1.8025  0.6040
17456THY    HM326876   2.559   1.636   7.292  1.0824  0.3140 -0.4682
17456THY    CA626877   2.609   1.745   7.537  0.8335  0.0891 -0.1347
17456THY    HA626878   2.646   1.797   7.450  1.3181 -0.5284 -1.4583
17457THY      O26879   7.406   6.513   4.473 -0.5361 -0.0020 -0.6357
17457THY     HO26880   7.448   6.492   4.388  0.9606  0.6115 -0.2356
17457THY    CA126881   7.280   6.470   4.466  0.7727 -0.2336 -0.4916
17457THY    CA226882   7.205   6.425   4.581  0.7195 -0.8239 -0.0841
17457THY    CP126883   7.269   6.417   4.716  0.1084 -0.5525  0.0383
17457THY    HP126884   7.373   6.452   4.711  0.9197 -0.9759 -2.2598
17457THY    CP226885   7.279   6.270   4.757  0.0210 -0.3692  0.0545
17457THY    HP226886   7.316   6.209   4.675 -0.3517 -0.5875  0.1232
17457THY    HP326887   7.185   6.227   4.793  0.8221  2.0364  0.1426
17457THY    HP426888   7.345   6.268   4.845 -1.4112  0.7336 -1.4412
17457THY    CP326889   7.201   6.499   4.826  0.3647  0.6418 -0.2382
17457THY    HP526890   7.102   6.455   4.841  1.0233  2.3001 -1.2858
17457THY    HP626891   7.215   6.605   4.803  1.0919  1.6566 -0.0914
17457THY    HP726892   7.256   6.488   4.921  0.8776  0.7208  2.3962
17457THY    CA326893   7.066   6.399   4.556 -0.5118 -0.0506  0.2207
17457THY    HA326894   6.993   6.380   4.634  1.2110  1.3168 -1.0635
17457THY    CA426895   7.015   6.404   4.426  0.2181  0.0876 -0.0401
17457THY    HA426896   6.908   6.398   4.407  0.4461 -2.4302  2.1758
17457THY    CA526897   7.099   6.430   4.315 -0.1273 -0.7554 -0.0038
17457THY    CM126898   7.030   6.434   4.181 -0.1880  0.1595  0.2618
17457THY    HM126899   7.099   6.431   4.095 -0.6762 -0.2174 -1.9340
17457THY    HM226900   6.972   6.526   4.174  0.4143  3.3161  1.0151
17457THY    HM326901   6.962   6.352   4.156 -1.0008 -0.3921  1.0854
17457THY    CA626902   7.226   6.472   4.333 -0.9778  0.4425 -1.0702
17457THY    HA626903   7.288   6.501   4.249 -0.0353  2.0083  1.8844
17458THY      O26904   3.230   3.861   6.576 -0.3412 -0.3910  0.2456
17458THY     HO26905   3.188   3.782   6.613 -1.8152 -1.1912  0.6394
17458THY    CA126906   3.158   3.962   6.639  0.2954  1.3829 -0.2657
17458THY    CA226907   3.172   4.091   6.592  0.1142 -0.1996  0.3142
17458THY    CP126908   3.271   4.120   6.483 -0.5275 -0.0118 -0.0195
17458THY    HP126909   3.357   4.057   6.507 -1.4573 -1.3023 -1.8649
17458THY    CP226910   3.324   4.267   6.492 -0.1461  0.3127 -0.2986
17458THY    HP226911   3.348   4.302   6.593  0.3248 -0.4413  1.7087
17458THY    HP326912   3.253   4.339   6.449 -0.0523 -0.7396 -0.8139
17458THY    HP426913   3.416   4.284   6.435 -1.3229 -1.4795  0.4361
17458THY    CP326914   3.217   4.096   6.336  0.1836 -0.2225 -0.0082
17458THY    HP526915   3.271   4.144   6.254 -0.1724 -0.3058  0.2573
17458THY    HP626916   3.116   4.138   6.326 -0.0266  0.8374 -0.2371
17458THY    HP726917   3.210   3.990   6.311 -0.4109 -1.5003  0.3070
17458THY    CA326918   3.097   4.195   6.665 -0.1397  0.8702  0.4395
17458THY    HA326919   3.106   4.299   6.638  0.3254 -0.7678 -0.0083
17458THY    CA426920   2.996   4.151   6.755  0.1483 -0.0001 -0.2552
17458THY    HA426921   2.918   4.214   6.796 -0.8384  0.8405 -1.9805
17458THY    CA526922   2.985   4.012   6.787  0.9313 -0.6339 -0.2492
17458THY    CM126923   2.895   3.954   6.900 -0.3269 -0.2571  0.0322
17458THY    HM126924   2.924   3.990   6.999 -0.5783  0.5493 -1.8658
17458THY    HM226925   2.911   3.847   6.919  2.7576  2.8531  0.8572
17458THY    HM326926   2.792   3.973   6.869 -0.9544  1.5778 -0.1579
17458THY    CA626927   3.059   3.921   6.724  0.6618 -0.4820 -0.3126
17458THY    HA626928   3.039   3.818   6.755 -1.5573  1.9703  0.7200
17459THY      O26929   8.119   8.747   4.403  0.1548 -0.3875 -0.1144
17459THY     HO26930   8.198   8.726   4.457 -0.0828  0.4922  1.1265
17459THY    CA126931   8.039   8.829   4.468  0.2062 -0.3723 -0.2843
17459THY    CA226932   7.908   8.869   4.429  0.1798  0.5408 -0.1505
17459THY    CP126933   7.855   8.818   4.295 -0.4285  0.1915 -0.3421
17459THY    HP126934   7.930   8.773   4.229  0.3215  0.7824  0.0254
17459THY    CP226935   7.808   8.932   4.204  0.2254  0.5206 -0.4384
17459THY    HP226936   7.708   8.967   4.233 -0.0772 -0.2602 -0.6114
17459THY    HP326937   7.797   8.901   4.099 -0.2642  0.0113  1.3587
17459THY    HP426938   7.886   9.007   4.216  1.2563  1.3598 -1.6090
17459THY    CP326939   7.744   8.725   4.314 -0.0042  1.1918  0.3156
17459THY    HP526940   7.773   8.636   4.370 -1.9335  0.7009 -0.6570
17459THY    HP626941   7.704   8.686   4.220 -0.5740  1.6572 -0.2232
17459THY    HP726942   7.661   8.780   4.359 -1.4947  0.1208 -0.9884
17459THY    CA326943   7.829   8.957   4.508  0.9127 -0.1081  0.5089
17459THY    HA326944   7.725   8.972   4.481  1.0963 -0.3494  1.4275
17459THY    CA426945   7.890   9.021   4.616 -0.2709 -0.2580  0.1033
17459THY    HA426946   7.838   9.094   4.678 -0.2550  1.7913 -1.5465
17459THY    CA526947   8.022   8.985   4.654 -0.2378 -0.3784  0.2367
17459THY    CM126948   8.090   9.053   4.764 -0.0031 -0.5603  0.0208
17459THY    HM126949   8.078   9.162   4.762 -1.0483 -2.5205 -0.0846
17459THY    HM226950   8.199   9.052   4.748  0.0091 -0.4948  0.1731
17459THY    HM326951   8.053   9.012   4.858 -2.4408 -2.0644 -1.4659
17459THY    CA626952   8.089   8.890   4.576  0.0090 -0.2932  0.2099
17459THY    HA626953   8.186   8.860   4.616  0.1803  0.3202  1.4823
17460THY      O26954   8.019   4.373   4.945 -0.2293 -0.1562  0.1707
17460THY     HO26955   8.112   4.390   4.923 -0.2307 -0.5813 -0.3310
17460THY    CA126956   7.978   4.278   4.863 -0.1797  0.2399 -0.2354
17460THY    CA226957   7.860   4.207   4.888  0.2693 -0.5175  0.1612
17460THY    CP126958   7.775   4.237   5.007  0.0512  0.1751  0.0705
17460THY    HP126959   7.805   4.331   5.055  1.9389 -1.5072  0.4015
17460THY    CP226960   7.781   4.136   5.129 -0.2188  0.1535  0.3216
17460THY    HP226961   7.752   4.037   5.094 -2.1842  0.2322  0.8212
17460THY    HP326962   7.712   4.169   5.208  0.3217  0.4233  0.8208
17460THY    HP426963   7.874   4.132   5.187  0.1001 -0.4372 -1.9226
17460THY    CP326964   7.624   4.249   4.967  0.2297 -0.9907 -0.8325
17460THY    HP526965   7.560   4.286   5.048  2.9046  1.7584 -1.8565
17460THY    HP626966   7.587   4.148   4.946  0.7025 -0.8305 -1.0429
17460THY    HP726967   7.618   4.325   4.888  2.6479  0.2496  0.8179
17460THY    CA326968   7.826   4.101   4.804  0.9597 -0.4768  0.3952
17460THY    HA326969   7.740   4.038   4.829 -0.3946 -0.8221  2.0304
17460THY    CA426970   7.899   4.070   4.694 -0.7270  0.3071  0.2161
17460THY    HA426971   7.859   3.999   4.622 -0.2033  0.3606 -0.1428
17460THY    CA526972   8.021   4.139   4.667  0.2592 -0.3706 -0.0734
17460THY    CM126973   8.102   4.093   4.548  0.2891  0.6530  0.4896
17460THY    HM126974   8.192   4.033   4.565  0.0017  0.3107 -0.0463
17460THY    HM226975   8.128   4.182   4.490  0.8552  0.1781  0.0238
17460THY    HM326976   8.041   4.035   4.478 -0.2238  1.9158 -0.5482
17460THY    CA626977   8.058   4.247   4.753  0.6781  0.8861  0.1421
17460THY    HA626978   8.151   4.302   4.740 -0.3557 -1.1094  1.5370
17461THY      O26979   0.339   0.861   5.655  0.3378  0.1161 -0.0634
17461THY     HO26980   0.380   0.780   5.620 -1.7674 -0.1215 -1.1005
17461THY    CA126981   0.434   0.954   5.690  0.8177 -0.1256 -0.2699
17461THY    CA226982   0.406   1.098   5.679 -0.4122 -0.0399  1.0063
17461THY    CP126983   0.265   1.130   5.627  0.4477 -0.6694  0.0167
17461THY    HP126984   0.207   1.042   5.595  0.9677 -0.8815 -0.2512
17461THY    CP226985   0.262   1.216   5.506  0.0706  0.5803 -0.5077
17461THY    HP226986   0.293   1.317   5.534  0.4159  0.5652 -0.6055
17461THY    HP326987   0.160   1.224   5.467 -0.0331  0.2378 -2.7650
17461THY    HP426988   0.324   1.174   5.426 -0.8296 -0.3955 -0.0244
17461THY    CP326989   0.204   1.195   5.744  0.1644 -0.1090 -1.3948
17461THY    HP526990   0.204   1.119   5.823  0.5230  1.9461  0.6343
17461THY    HP626991   0.102   1.227   5.718  0.3173  0.8259 -0.0566
17461THY    HP726992   0.262   1.282   5.776  0.7740  0.8360 -2.1306
17461THY    CA326993   0.508   1.190   5.691  0.1830 -0.1256 -0.1259
17461THY    HA326994   0.502   1.298   5.678  1.3348  0.7390  0.0625
17461THY    CA426995   0.636   1.144   5.730  0.0363 -0.7508 -0.6724
17461THY    HA426996   0.715   1.218   5.739  0.2257  1.3199 -1.0745
17461THY    CA526997   0.662   1.002   5.742 -0.0126 -0.3325 -0.6684
17461THY    CM126998   0.800   0.970   5.782  0.4069  0.4210  1.0168
17461THY    HM126999   0.824   1.017   5.878 -0.4046  2.2618 -1.9993
17461THY    HM227000   0.872   0.985   5.701 -1.1699 -1.4998 -1.1212
17461THY    HM327001   0.803   0.861   5.793 -1.4386 -0.4075  0.8302
17461THY    CA627002   0.561   0.908   5.713 -0.0584  0.2739 -0.5894
17461THY    HA627003   0.580   0.802   5.712 -0.8839  0.4010 -0.7445
17462THY      O27004   3.228   7.583   2.456  0.4736 -0.1883 -0.2690
17462THY     HO27005   3.290   7.612   2.386 -0.5300 -1.0565 -0.1485
17462THY    CA127006   3.260   7.455   2.489  0.0103 -0.1571  0.6080
17462THY    CA227007   3.205   7.395   2.605 -0.8613  0.9987  0.3220
17462THY    CP127008   3.091   7.470   2.672 -0.2003  0.0679 -0.3507
17462THY    HP127009   3.043   7.538   2.600 -1.6974  0.1962 -1.2308
17462THY    CP227010   3.141   7.543   2.800 -0.0271  0.6275 -0.0409
17462THY    HP227011   3.163   7.476   2.884 -0.1381 -0.6487 -1.7185
17462THY    HP327012   3.062   7.617   2.817 -0.0632 -1.7663  0.5361
17462THY    HP427013   3.231   7.604   2.787 -0.1459 -0.9551 -0.1694
17462THY    CP327014   2.971   7.385   2.701 -0.1135 -0.3948  0.2144
17462THY    HP527015   2.977   7.313   2.783  2.1431  0.3676  1.1810
17462THY    HP627016   2.943   7.332   2.609  0.3156 -0.5017  0.1668
17462THY    HP727017   2.897   7.454   2.741  0.4111  2.5316 -0.7762
17462THY    CA327018   3.242   7.262   2.639 -0.3884  0.0863  0.3090
17462THY    HA327019   3.192   7.209   2.719 -0.1976  1.4249  2.0898
17462THY    CA427020   3.337   7.194   2.558  0.3685  0.1288 -0.4024
17462THY    HA427021   3.360   7.090   2.580  1.4655 -0.2369 -0.2456
17462THY    CA527022   3.393   7.255   2.446 -0.4892 -1.2451 -0.4501
17462THY    CM127023   3.475   7.170   2.355  0.4468 -0.3202 -0.5947
17462THY    HM127024   3.521   7.226   2.273 -0.1869  1.1235  2.1998
17462THY    HM227025   3.420   7.084   2.315  2.3838 -0.0900 -2.0032
17462THY    HM327026   3.563   7.132   2.408  0.4942  1.4698  1.8184
17462THY    CA627027   3.345   7.386   2.411  0.0350  0.0411  0.7490
17462THY    HA627028   3.383   7.433   2.321 -0.0097 -0.9608 -1.0318
17463THY      O27029   2.111   2.519   7.038  0.6527  0.0970 -0.3148
17463THY     HO27030   2.050   2.446   7.018  0.0767  2.2105 -0.4740
17463THY    CA127031   2.237   2.494   6.990  0.7315  0.4150 -0.1055
17463THY    CA227032   2.339   2.585   7.011 -0.2014 -0.5710 -0.0740
17463THY    CP127033   2.325   2.718   7.083  0.5031  1.1404 -0.4388
17463THY    HP127034   2.223   2.732   7.123 -0.2998 -1.3256  1.4033
17463THY    CP227035   2.353   2.841   6.996 -0.7523  0.1559 -0.0519
17463THY    HP227036   2.275   2.860   6.921 -1.0804  0.6428  0.5342
17463THY    HP327037   2.443   2.820   6.936  0.7071  2.2165  0.0820
17463THY    HP427038   2.374   2.929   7.056 -0.9476  0.0848  0.0433
17463THY    CP327039   2.422   2.727   7.202  0.0918  1.0440  0.7971
17463THY    HP527040   2.405   2.645   7.273  0.9548 -1.0416 -1.2811
17463THY    HP627041   2.413   2.821   7.257 -1.9000  0.4290  1.0023
17463THY    HP727042   2.529   2.718   7.181 -0.0085  1.1753 -1.0135
17463THY    CA327043   2.463   2.541   6.970  0.4753  0.4556  0.0608
17463THY    HA327044   2.545   2.610   6.983 -0.3018 -0.0512  1.1103
17463THY    CA427045   2.478   2.422   6.904  0.0997 -0.0624 -0.5761
17463THY    HA427046   2.576   2.391   6.871 -0.2415  0.5734 -2.4501
17463THY    CA527047   2.372   2.338   6.880 -0.7221 -0.0841  0.7250
17463THY    CM127048   2.396   2.213   6.813 -0.1122  0.3070 -0.6538
17463THY    HM127049   2.480   2.160   6.860  0.1864 -1.0259 -1.4186
17463THY    HM227050   2.419   2.230   6.707  0.4103  0.6113  0.5901
17463THY    HM327051   2.303   2.155   6.813 -1.1817 -1.7979  0.9474
17463THY    CA627052   2.248   2.373   6.925 -0.1473  0.1580  0.0655
17463THY    HA627053   2.168   2.300   6.921  1.0047 -1.1539 -1.1950
17464THY      O27054   6.378   6.268   2.195  0.0181 -0.0805 -0.3234
17464THY     HO27055   6.407   6.237   2.107  0.2113 -0.0936 -0.1141
17464THY    CA127056   6.458   6.372   2.214 -0.4871  0.2480 -0.6571
17464THY    CA227057   6.420   6.466   2.304  0.0081 -0.4818  0.0860
17464THY    CP127058   6.289   6.451   2.390 -0.5222 -0.2535  0.1541
17464THY    HP127059   6.230   6.366   2.353  1.5172 -1.4452 -0.8506
17464THY    CP227060   6.208   6.576   2.382  0.2858  0.7570  0.1013
17464THY    HP227061   6.265   6.670   2.392  0.1275 -2.0221  0.5753
17464THY    HP327062   6.136   6.573   2.464  0.5971  1.1366  1.7886
17464THY    HP427063   6.153   6.571   2.287 -1.6351  1.8627 -0.7950
17464THY    CP327064   6.321   6.418   2.542  0.1407 -0.2997  0.5715
17464THY    HP527065   6.231   6.405   2.604  1.0552  0.8865 -0.3564
17464THY    HP627066   6.372   6.510   2.573 -2.0691 -0.0685  1.7997
17464THY    HP727067   6.366   6.320   2.556 -2.5772  1.8737 -0.5044
17464THY    CA327068   6.508   6.572   2.333  0.1742 -0.4108  0.3024
17464THY    HA327069   6.481   6.643   2.410 -0.3288 -0.4006  0.1013
17464THY    CA427070   6.620   6.585   2.253  0.2545  0.1603 -0.4197
17464THY    HA427071   6.688   6.668   2.268  0.0472 -1.2502  0.0334
17464THY    CA527072   6.654   6.499   2.154 -0.4214  0.7897 -0.3326
17464THY    CM127073   6.776   6.518   2.076  0.0012 -0.2608  0.3677
17464THY    HM127074   6.803   6.431   2.016 -2.8644 -2.5562  0.8798
17464THY    HM227075   6.861   6.548   2.138 -0.9913  0.7535  1.1954
17464THY    HM327076   6.756   6.601   2.007  0.3786 -1.9539 -0.8900
17464THY    CA627077   6.575   6.385   2.135 -0.1750 -0.6385  0.1043
17464THY    HA627078   6.609   6.305   2.070 -3.0211 -0.9469 -0.9748
17465THY      O27079   0.588   4.716   3.823  0.0386 -0.2236  0.0991
17465THY     HO27080   0.590   4.756   3.734  0.8117 -0.1252  0.2867
17465THY    CA127081   0.461   4.705   3.864  0.2257 -1.0733  0.8517
17465THY    CA227082   0.426   4.724   4.005 -0.0075  0.0776  0.5379
17465THY    CP127083   0.524   4.774   4.107 -0.8305  0.5780 -0.2841
17465THY    HP127084   0.624   4.761   4.063 -1.7627 -1.6102 -0.5080
17465THY    CP227085   0.543   4.689   4.227 -0.4107 -0.5044  0.2287
17465THY    HP227086   0.459   4.711   4.294 -0.7880 -1.5062  2.0048
17465THY    HP327087   0.644   4.698   4.267 -0.5243 -0.5067  1.8454
17465THY    HP427088   0.533   4.583   4.200  1.0015 -1.0282  0.2178
17465THY    CP327089   0.492   4.923   4.149 -1.2171  0.0092 -0.1792
17465THY    HP527090   0.584   4.963   4.194 -2.4901  1.4504  1.2302
17465THY    HP627091   0.408   4.935   4.218 -0.7173  0.3782  1.4951
17465THY    HP727092   0.463   4.975   4.057  0.3033  0.2916  1.2577
17465THY    CA327093   0.296   4.691   4.041 -0.0354 -0.0985  0.5300
17465THY    HA327094   0.266   4.711   4.144 -0.1690  0.1666 -0.9484
17465THY    CA427095   0.201   4.649   3.948  0.0618 -0.1861 -0.0912
17465THY    HA427096   0.098   4.635   3.981  0.2620  0.1831 -0.7191
17465THY    CA527097   0.232   4.648   3.815 -0.0474  0.8504  0.3557
17465THY    CM127098   0.125   4.618   3.714  0.1683 -0.6970  0.0574
17465THY    HM127099   0.094   4.513   3.711 -1.0061 -0.0486  0.3632
17465THY    HM227100   0.169   4.660   3.623 -0.7014 -1.1207  0.0757
17465THY    HM327101   0.036   4.680   3.730 -0.0510  2.0385 -0.8050
17465THY    CA627102   0.366   4.661   3.772  0.1796 -0.4237 -0.5934
17465THY    HA627103   0.399   4.649   3.669 -0.1726 -0.6229  0.0535
17466THY      O27104   6.607   6.433   5.629  0.0721 -0.1176 -0.5320
17466THY     HO27105   6.635   6.455   5.538 -0.8338 -0.4211 -0.6176
17466THY    CA127106   6.513   6.328   5.626  0.2924 -0.2316 -0.3873
17466THY    CA227107   6.395   6.337   5.705  0.3840 -0.0718 -0.3048
17466THY    CP127108   6.391   6.444   5.813  0.8718 -0.3304  0.3196
17466THY    HP127109   6.497   6.471   5.824  1.0270 -0.1878 -0.3296
17466THY    CP227110   6.320   6.397   5.941  0.2276 -0.0837 -0.1854
17466THY    HP227111   6.343   6.456   6.030 -1.7530 -0.5859  1.4553
17466THY    HP327112   6.349   6.293   5.964  0.6980  1.2320  0.2176
17466THY    HP427113   6.211   6.392   5.934  0.3317 -0.9011 -2.2731
17466THY    CP327114   6.309   6.559   5.766  0.1611 -0.6375  0.1885
17466THY    HP527115   6.286   6.637   5.840 -0.7773 -1.0110  0.2806
17466THY    HP627116   6.208   6.529   5.735  0.0204  0.2240 -0.2700
17466THY    HP727117   6.353   6.613   5.682  2.0061  1.1762  1.6518
17466THY    CA327118   6.285   6.246   5.683  0.1824 -0.6815  0.0834
17466THY    HA327119   6.191   6.269   5.732  0.7241  0.4207 -0.0129
17466THY    CA427120   6.301   6.144   5.590  0.6953  0.6360 -0.3622
17466THY    HA427121   6.222   6.072   5.569  0.9804 -1.3298 -0.1367
17466THY    CA527122   6.415   6.141   5.513  0.6975  0.4692  0.3354
17466THY    CM127123   6.428   6.032   5.405  0.1141 -0.1913 -0.2218
17466THY    HM127124   6.332   6.029   5.353  1.7850 -3.5119  0.0237
17466THY    HM227125   6.461   5.937   5.448 -0.0148 -1.6673 -0.9636
17466THY    HM327126   6.503   6.059   5.331 -1.3308 -1.6702 -0.1071
17466THY    CA627127   6.521   6.232   5.525 -0.1459  0.1751 -0.1895
17466THY    HA627128   6.609   6.208   5.466  0.1178  1.1746 -1.8963
17467THY      O27129   0.915   1.633   4.764  0.2436  0.4066 -0.6693
17467THY     HO27130   0.945   1.708   4.709 -1.0850 -0.1188 -0.4930
17467THY    CA127131   0.782   1.660   4.767 -0.0652  0.3970 -0.2362
17467THY    CA227132   0.693   1.601   4.858  0.8532 -0.2134  0.2251
17467THY    CP127133   0.743   1.480   4.945  0.0336  0.7783 -0.9615
17467THY    HP127134   0.828   1.423   4.906  2.2334  0.4415  2.2100
17467THY    CP227135   0.630   1.384   4.967  0.2778  0.6651  0.4309
17467THY    HP227136   0.675   1.294   5.011  1.2313  0.8366  0.9759
17467THY    HP327137   0.572   1.357   4.878  1.4086 -0.0596  0.3510
17467THY    HP427138   0.557   1.438   5.028 -1.5525 -2.0842  1.2744
17467THY    CP327139   0.801   1.532   5.079  0.2843  0.1510 -0.1455
17467THY    HP527140   0.900   1.578   5.077  0.2895 -1.2988 -0.1692
17467THY    HP627141   0.807   1.446   5.147  0.9068 -0.3728 -0.5220
17467THY    HP727142   0.730   1.604   5.122 -0.3334 -0.8857 -0.1192
17467THY    CA327143   0.554   1.642   4.865 -0.4023  0.3650  0.0520
17467THY    HA327144   0.487   1.605   4.943 -1.2974 -0.2241  0.4044
17467THY    CA427145   0.513   1.737   4.768  0.2781  0.1074 -0.6108
17467THY    HA427146   0.409   1.770   4.762  1.0651 -1.5502  1.8549
17467THY    CA527147   0.604   1.803   4.683 -0.4511  0.5021  0.8801
17467THY    CM127148   0.559   1.920   4.590  0.0036  0.0236  0.3080
17467THY    HM127149   0.519   2.001   4.651 -0.6171 -0.1292  0.1280
17467THY    HM227150   0.474   1.890   4.526 -0.0326 -0.2580  1.0022
17467THY    HM327151   0.634   1.958   4.520 -0.8186  0.2081  2.3657
17467THY    CA627152   0.736   1.761   4.681  0.3028 -0.7498 -0.1256
17467THY    HA627153   0.801   1.803   4.606 -1.4945 -1.1365  2.1538
17468THY      O27154   7.750   6.492   2.218 -0.0888 -0.1296 -0.0578
17468THY     HO27155   7.771   6.471   2.125 -1.8132 -0.4978 -0.2329
17468THY    CA127156   7.673   6.603   2.217 -0.4602 -0.0339  0.1133
17468THY    CA227157   7.655   6.682   2.331 -0.2191  0.4904 -0.1193
17468THY    CP127158   7.733   6.652   2.459 -0.2135 -0.3788 -0.2873
17468THY    HP127159   7.786   6.557   2.443 -0.7444  2.6439 -1.1838
17468THY    CP227160   7.638   6.629   2.575 -0.1252  0.2662  0.1147
17468THY    HP227161   7.591   6.724   2.604  0.8656 -2.0288  1.3856
17468THY    HP327162   7.688   6.588   2.664  0.4270  0.1960  0.6143
17468THY    HP427163   7.554   6.564   2.547 -1.1841 -1.4187  2.1081
17468THY    CP327164   7.847   6.756   2.496  0.1073  0.3896 -0.6154
17468THY    HP527165   7.909   6.759   2.406 -0.3310  0.0925 -0.1763
17468THY    HP627166   7.909   6.737   2.584 -0.6292  1.5065  1.7742
17468THY    HP727167   7.792   6.851   2.505  2.0662 -0.2737  0.6399
17468THY    CA327168   7.561   6.790   2.324 -0.7103  0.2683  0.8186
17468THY    HA327169   7.537   6.849   2.412 -1.2717  0.7874 -0.1609
17468THY    CA427170   7.503   6.822   2.206 -0.2339 -0.5998  0.1878
17468THY    HA427171   7.421   6.892   2.211 -0.1021 -1.1389  0.3808
17468THY    CA527172   7.533   6.752   2.081 -0.0785 -0.0790  0.0848
17468THY    CM127173   7.450   6.792   1.960  0.0988  0.6604 -0.1401
17468THY    HM127174   7.373   6.868   1.984  1.1895  1.8241  0.6438
17468THY    HM227175   7.410   6.704   1.908  1.0644  2.8380 -1.9762
17468THY    HM327176   7.521   6.832   1.888  0.6785  0.7168 -1.0405
17468THY    CA627177   7.615   6.639   2.088 -0.1959  0.0105 -0.1104
17468THY    HA627178   7.643   6.585   1.998  2.9010 -0.2833  1.7476
17469THY      O27179   0.676   1.157   2.282  0.3133  0.2018 -0.0072
17469THY     HO27180   0.642   1.248   2.279 -2.0515  1.5444 -0.7708
17469THY    CA127181   0.599   1.078   2.197  0.6414 -0.3372  0.6587
17469THY    CA227182   0.644   0.952   2.154 -0.3628 -0.0766 -0.3608
17469THY    CP127183   0.776   0.901   2.204 -0.1234  0.2326 -0.5085
17469THY    HP127184   0.814   0.971   2.280 -1.9245 -0.1676  0.9933
17469THY    CP227185   0.869   0.887   2.086  0.0602  0.5372 -0.1563
17469THY    HP227186   0.829   0.807   2.022  1.7286 -0.9816  0.1444
17469THY    HP327187   0.966   0.857   2.128 -0.1268  1.3107  0.3058
17469THY    HP427188   0.876   0.984   2.034 -0.0234 -1.5034 -1.1898
17469THY    CP327189   0.770   0.774   2.278 -0.2692  0.1448 -0.2995
17469THY    HP527190   0.683   0.776   2.346  0.1508  0.6911 -0.3018
17469THY    HP627191   0.858   0.767   2.343 -0.7438  1.3527  2.8983
17469THY    HP727192   0.747   0.686   2.218  1.3995 -1.4534  0.3001
17469THY    CA327193   0.564   0.865   2.080  0.0658 -0.0513  0.0662
17469THY    HA327194   0.606   0.773   2.042 -1.1675 -1.4502  0.0534
17469THY    CA427195   0.435   0.902   2.044  0.1455 -0.0824  0.2006
17469THY    HA427196   0.379   0.840   1.974 -1.5165 -0.1913  1.7287
17469THY    CA527197   0.388   1.029   2.081  0.1283 -0.6499  0.4160
17469THY    CM127198   0.262   1.077   2.027  1.5458  0.4307 -0.5273
17469THY    HM127199   0.183   1.039   2.093  1.1725  1.4271  1.7706
17469THY    HM227200   0.249   1.044   1.924  0.9225 -0.4435  2.2041
17469THY    HM327201   0.256   1.186   2.036 -0.7112 -1.3812 -0.4248
17469THY    CA627202   0.467   1.115   2.161  0.2733 -0.6465  0.0686
17469THY    HA627203   0.428   1.207   2.204  3.3485  1.4748  0.5062
17470THY      O27204   4.962   6.221   6.826  0.1325 -0.8287 -0.0373
17470THY     HO27205   4.945   6.129   6.800 -2.0705  0.2889  0.0053
17470THY    CA127206   4.898   6.246   6.947 -0.5761 -0.5625  0.4524
17470THY    CA227207   4.928   6.362   7.028  0.2768 -0.4376  0.2078
17470THY    CP127208   5.031   6.464   6.970 -0.2020 -1.0476  0.0907
17470THY    HP127209   5.093   6.426   6.889 -0.5737 -0.6002 -1.5478
17470THY    CP227210   5.140   6.496   7.074  0.0867 -0.0783  0.6397
17470THY    HP227211   5.210   6.412   7.084  0.2371 -1.8215  0.5154
17470THY    HP327212   5.108   6.513   7.178 -1.8760 -0.7485  1.3205
17470THY    HP427213   5.195   6.586   7.043 -0.5876  2.1725  1.9129
17470THY    CP327214   4.958   6.587   6.922  0.2268  0.4186 -0.2858
17470THY    HP527215   4.881   6.625   6.990  0.9029  0.5826  0.8471
17470THY    HP627216   4.907   6.569   6.826 -3.6508  2.1992  0.1533
17470THY    HP727217   5.028   6.670   6.903 -0.1596 -2.0456 -0.4357
17470THY    CA327218   4.869   6.369   7.154  0.4322 -1.4006 -0.3703
17470THY    HA327219   4.904   6.447   7.222 -1.4150  1.2767 -1.7071
17470THY    CA427220   4.777   6.269   7.191  0.0712 -0.7111  0.3172
17470THY    HA427221   4.746   6.269   7.296 -0.2028 -0.7730 -1.1060
17470THY    CA527222   4.737   6.160   7.112  0.0193  0.8381  0.2773
17470THY    CM127223   4.629   6.063   7.143  0.2798 -0.2833  0.6297
17470THY    HM127224   4.570   6.095   7.230 -1.0819 -1.4814  1.5264
17470THY    HM227225   4.659   5.963   7.176 -0.4470 -0.1361  0.4510
17470THY    HM327226   4.554   6.049   7.064 -0.6988  0.3146  2.2428
17470THY    CA627227   4.795   6.159   6.983 -1.1739  0.1033  0.0501
17470THY    HA627228   4.769   6.079   6.914 -1.0129 -1.0249  0.9421
17471THY      O27229   3.274   1.714   4.666 -0.2475  0.3208  0.0036
17471THY     HO27230   3.284   1.647   4.736 -2.0859  1.8220  1.1894
17471THY    CA127231   3.338   1.678   4.550  0.1349  0.4042 -0.4056
17471THY    CA227232   3.424   1.769   4.482  0.7229  0.2978  0.6407
17471THY    CP127233   3.449   1.904   4.543  0.2533  0.2291 -0.1343
17471THY    HP127234   3.385   1.928   4.629  0.8385  0.7844 -0.5228
17471THY    CP227235   3.430   2.014   4.436  0.1842 -0.1915  0.2343
17471THY    HP227236   3.507   2.000   4.359  1.4654  0.7484  1.7511
17471THY    HP327237   3.432   2.111   4.487  2.0005 -2.1420  1.3192
17471THY    HP427238   3.333   1.993   4.388  0.3453 -0.0770 -0.7975
17471THY    CP327239   3.597   1.909   4.590  0.3461  0.1906 -0.2129
17471THY    HP527240   3.616   2.009   4.631 -1.2921 -1.2219  0.7409
17471THY    HP627241   3.671   1.900   4.510  0.2152 -0.2533  2.0116
17471THY    HP727242   3.608   1.829   4.664 -1.8912 -0.9156 -1.6335
17471THY    CA327243   3.476   1.724   4.362 -0.0138 -0.2072 -0.4126
17471THY    HA327244   3.546   1.787   4.306 -0.4933 -0.3058  0.0401
17471THY    CA427245   3.449   1.603   4.308  0.6252  0.0639 -0.2478
17471THY    HA427246   3.499   1.577   4.216 -1.0268 -1.1018  0.5291
17471THY    CA527247   3.361   1.515   4.378 -0.4345 -0.3026  0.6144
17471THY    CM127248   3.329   1.382   4.319 -0.4899 -0.5692  0.0710
17471THY    HM127249   3.220   1.375   4.332 -0.3351  2.6252  1.8489
17471THY    HM227250   3.391   1.309   4.372 -1.0029  0.8078  0.6029
17471THY    HM327251   3.367   1.374   4.216 -0.5053 -0.4729 -1.3839
17471THY    CA627252   3.311   1.556   4.500  0.0810 -0.4252  0.1357
17471THY    HA627253   3.251   1.493   4.564  1.2412 -0.4453 -1.0432
17472THY      O27254   0.978   5.680   7.267  0.2790 -0.0350 -0.0625
17472THY     HO27255   0.931   5.702   7.350 -0.7211 -1.0076  1.6838
17472THY    CA127256   1.001   5.793   7.190 -0.0287 -0.4002 -0.3488
17472THY    CA227257   0.991   5.782   7.056 -0.1256  0.1507  0.0893
17472THY    CP127258   0.949   5.649   6.986 -0.5158  0.4665 -0.1454
17472THY    HP127259   0.918   5.576   7.062  2.7873  1.1910 -0.9580
17472THY    CP227260   1.068   5.586   6.904 -0.2262 -0.4495 -0.1807
17472THY    HP227261   1.038   5.487   6.867 -0.0179  0.0573 -0.4351
17472THY    HP327262   1.153   5.572   6.971 -2.1973  2.1845 -0.4158
17472THY    HP427263   1.069   5.650   6.815 -2.3524 -0.7713 -0.5075
17472THY    CP327264   0.824   5.680   6.900 -0.2120 -0.2861 -0.2022
17472THY    HP527265   0.856   5.753   6.824  0.1928  1.0407  1.0471
17472THY    HP627266   0.752   5.731   6.964  2.7936  1.6996  1.8385
17472THY    HP727267   0.779   5.592   6.853 -0.9174  1.9205 -1.0627
17472THY    CA327268   1.034   5.896   6.986 -0.0288 -0.0100  0.1559
17472THY    HA327269   1.043   5.893   6.877  0.8594 -0.0322  2.1029
17472THY    CA427270   1.084   6.014   7.051  0.3303 -0.4690 -0.0522
17472THY    HA427271   1.122   6.095   6.990  0.2545 -2.6539 -1.5666
17472THY    CA527272   1.097   6.011   7.190 -0.0565 -0.4144 -0.3727
17472THY    CM127273   1.163   6.128   7.263 -0.5296 -0.0189 -0.1571
17472THY    HM127274   1.144   6.230   7.229  0.4071  1.6080  0.5963
17472THY    HM227275   1.270   6.113   7.243 -0.3947 -1.1532  1.9325
17472THY    HM327276   1.144   6.118   7.370  2.4670  0.5327 -0.8030
17472THY    CA627277   1.049   5.898   7.259 -0.0545 -0.0594 -0.5310
17472THY    HA627278   1.064   5.891   7.366  0.6473 -0.0641  0.6283
17473THY      O27279   6.414   1.180   5.495  0.0146 -0.8554  0.4221
17473THY     HO27280   6.501   1.210   5.464  0.2791  0.2932  0.9031
17473THY    CA127281   6.328   1.194   5.400  0.2198  0.0837 -0.0004
17473THY    CA227282   6.184   1.193   5.419 -0.5954  0.8354 -0.0896
17473THY    CP127283   6.134   1.156   5.560  0.3983 -0.9483 -0.3806
17473THY    HP127284   6.182   1.219   5.637  0.7104 -1.1899 -0.3173
17473THY    CP227285   6.172   1.019   5.608  1.0621  0.3419  0.5578
17473THY    HP227286   6.148   0.994   5.712  3.5920  0.7916 -0.3294
17473THY    HP327287   6.281   1.010   5.609  0.9942 -0.5515 -0.7595
17473THY    HP427288   6.129   0.941   5.543 -2.8217  0.8629  2.0206
17473THY    CP327289   5.984   1.178   5.580 -0.5777 -0.2104 -0.4575
17473THY    HP527290   5.945   1.167   5.682 -3.5753 -1.0706  1.0317
17473THY    HP627291   5.920   1.124   5.509 -0.8854 -1.0058  0.8930
17473THY    HP727292   5.948   1.280   5.561 -0.8565  2.5164  0.0223
17473THY    CA327293   6.100   1.222   5.306 -0.0367 -0.6229  0.5235
17473THY    HA327294   5.992   1.225   5.312  0.0181  1.3459 -0.0197
17473THY    CA427295   6.155   1.223   5.178 -0.8081  0.7791  0.9101
17473THY    HA427296   6.094   1.246   5.091 -0.6394  0.6584  0.8967
17473THY    CA527297   6.299   1.213   5.157 -0.4704 -0.5051  0.4938
17473THY    CM127298   6.368   1.214   5.024 -0.6054 -0.2315 -0.5785
17473THY    HM127299   6.417   1.311   5.012 -1.8844  0.0444  0.1208
17473THY    HM227300   6.287   1.200   4.951  0.3484 -1.2995 -0.6825
17473THY    HM327301   6.431   1.124   5.016 -0.7358 -1.3511 -0.5902
17473THY    CA627302   6.384   1.205   5.272 -0.2208 -0.6652  0.7648
17473THY    HA627303   6.490   1.213   5.249 -0.3269 -1.7485 -0.5342
17474THY      O27304   9.065   3.005   7.286 -0.3927 -0.1985  0.2304
17474THY     HO27305   9.132   2.959   7.339 -2.6912  2.5745 -0.2320
17474THY    CA127306   9.019   2.924   7.185  0.0737  0.0576 -0.1032
17474THY    CA227307   8.920   2.963   7.087 -0.3399 -0.2675 -1.1307
17474THY    CP127308   8.872   3.113   7.101  0.4026 -0.5337  0.2783
17474THY    HP127309   8.929   3.171   7.175  2.7834  0.0885 -2.5883
17474THY    CP227310   8.728   3.110   7.155  0.0431  0.7260 -0.2093
17474THY    HP227311   8.667   3.055   7.083  2.1222 -1.4924  0.2105
17474THY    HP327312   8.699   3.216   7.159  2.2812 -2.1987  0.6696
17474THY    HP427313   8.726   3.070   7.257 -0.7072  1.4169  1.4713
17474THY    CP327314   8.888   3.184   6.967  0.0377  0.0876  0.0129
17474THY    HP527315   8.825   3.135   6.892 -1.5859 -0.4910  2.7594
17474THY    HP627316   8.992   3.191   6.932  0.0148  0.0646  0.2781
17474THY    HP727317   8.848   3.286   6.975 -2.1791 -0.7567 -0.7466
17474THY    CA327318   8.875   2.870   6.991  0.5710 -0.7908 -0.6802
17474THY    HA327319   8.805   2.899   6.912 -0.6223  0.4507 -0.0557
17474THY    CA427320   8.923   2.740   6.996  0.3346 -0.6943 -0.0370
17474THY    HA427321   8.892   2.667   6.922  0.9925 -1.4536  0.4319
17474THY    CA527322   9.028   2.709   7.079  0.2024 -0.0284 -0.1227
17474THY    CM127323   9.083   2.567   7.072 -0.3209 -0.4618 -0.3088
17474THY    HM127324   9.016   2.498   7.019 -2.9811  2.9615 -0.6220
17474THY    HM227325   9.102   2.524   7.171  0.1455  0.1706  1.2853
17474THY    HM327326   9.184   2.570   7.031  0.5578  1.6227  0.7223
17474THY    CA627327   9.072   2.798   7.175 -0.2656  0.3041 -0.1976
17474THY    HA627328   9.153   2.771   7.242 -1.9714  1.5859 -2.6954
17475THY      O27329   4.850   5.082   4.388 -0.4285 -0.2739  0.4989
17475THY     HO27330   4.909   5.130   4.326  1.6982  1.6836  0.5976
17475THY    CA127331   4.886   4.953   4.386  0.4238 -0.8189 -0.4700
17475THY    CA227332   4.841   4.866   4.483 -0.4389  0.1710  0.1727
17475THY    CP127333   4.752   4.919   4.593 -0.3667  0.3069  0.8787
17475THY    HP127334   4.746   5.029   4.591 -0.6642 -0.9705  0.8553
17475THY    CP227335   4.804   4.871   4.729  0.1390 -0.7918 -0.5321
17475THY    HP227336   4.757   4.939   4.801 -1.9477 -1.6347 -1.0087
17475THY    HP327337   4.914   4.878   4.732  0.1005  1.4321  0.0841
17475THY    HP427338   4.789   4.763   4.740 -0.3041 -0.4732 -0.4405
17475THY    CP327339   4.610   4.875   4.563 -0.3591  0.0127  0.3112
17475THY    HP527340   4.582   4.907   4.462 -1.9523  0.7418  1.3438
17475THY    HP627341   4.531   4.916   4.627  1.3362  1.4214  1.4824
17475THY    HP727342   4.603   4.765   4.571  1.4301 -0.1141  0.1649
17475THY    CA327343   4.879   4.733   4.485  0.0319 -0.4243  0.1658
17475THY    HA327344   4.839   4.671   4.565  1.4894  1.8127  1.9377
17475THY    CA427345   4.960   4.685   4.380  0.5318 -0.1999  0.0338
17475THY    HA427346   4.986   4.580   4.367 -0.4562 -2.3429 -0.0135
17475THY    CA527347   5.006   4.770   4.284 -1.1566  0.4809 -0.3224
17475THY    CM127348   5.100   4.725   4.177 -0.1722  0.2021  0.5632
17475THY    HM127349   5.203   4.748   4.204 -0.3384  0.0178  1.5797
17475THY    HM227350   5.081   4.769   4.078  0.8489 -0.3956 -0.2856
17475THY    HM327351   5.102   4.616   4.166 -3.1971 -0.8966  0.5034
17475THY    CA627352   4.969   4.906   4.285 -0.3202 -0.2410  0.5575
17475THY    HA627353   5.009   4.970   4.208  2.3260  1.7022  1.4116
17476THY      O27354   6.426   4.780   6.214 -0.2762  0.3652  0.3288
17476THY     HO27355   6.432   4.698   6.266 -1.4089  0.9283  0.5915
17476THY    CA127356   6.299   4.775   6.172 -0.2826 -0.0194  1.0678
17476THY    CA227357   6.232   4.889   6.146 -0.4832  0.0468 -0.2577
17476THY    CP127358   6.302   5.024   6.172 -0.3620  0.5948  0.1693
17476THY    HP127359   6.412   5.021   6.176 -0.2927 -0.4984  0.6924
17476THY    CP227360   6.254   5.069   6.314 -0.4309  0.8430 -0.1682
17476THY    HP227361   6.316   5.147   6.359  0.4391 -1.3549  0.4923
17476THY    HP327362   6.274   4.990   6.387  0.7010  1.1611  0.3983
17476THY    HP427363   6.148   5.096   6.302 -0.1054 -0.6511  0.5693
17476THY    CP327364   6.266   5.131   6.068 -0.3268  0.5019  0.5226
17476THY    HP527365   6.305   5.103   5.969  0.4733  1.1126 -0.5573
17476THY    HP627366   6.320   5.223   6.095  0.4373  2.3416 -0.4310
17476THY    HP727367   6.160   5.155   6.059  0.0705 -2.1718  1.6826
17476THY    CA327368   6.096   4.875   6.107 -0.5695 -0.0005  0.2114
17476THY    HA327369   6.032   4.960   6.086 -1.7303  0.2625 -0.5708
17476THY    CA427370   6.037   4.748   6.087 -0.1633  0.3352  0.3362
17476THY    HA427371   5.937   4.736   6.045 -0.3763  1.0949 -0.6644
17476THY    CA527372   6.111   4.636   6.117  0.4179  0.0331  0.0286
17476THY    CM127373   6.050   4.499   6.108  0.1995 -0.1455  0.7230
17476THY    HM127374   5.950   4.497   6.151 -2.3616 -5.2787  0.6637
17476THY    HM227375   6.107   4.426   6.167  1.3738  0.0378  1.7624
17476THY    HM327376   6.049   4.458   6.006  1.3775  0.2065 -0.2539
17476THY    CA627377   6.244   4.650   6.157  0.0624  0.2894  0.1781
17476THY    HA627378   6.308   4.562   6.163  2.2762 -4.8065  1.0385
17477THY      O27379   0.322   1.100   4.591  0.1234  0.7143  0.3765
17477THY     HO27380   0.279   1.075   4.674  1.7482  1.3383 -0.4436
17477THY    CA127381   0.432   1.014   4.585  0.1118 -0.0876 -0.4031
17477THY    CA227382   0.466   0.935   4.471 -0.4070 -0.1325 -0.2583
17477THY    CP127383   0.382   0.941   4.343  0.2082  0.5091 -0.3790
17477THY    HP127384   0.285   0.985   4.371 -0.2428 -0.2727 -0.8499
17477THY    CP227385   0.351   0.796   4.293 -0.2097 -0.1554  0.1032
17477THY    HP227386   0.314   0.730   4.373  2.0723 -0.5819 -1.8229
17477THY    HP327387   0.436   0.746   4.244 -0.6357 -0.6048 -0.1886
17477THY    HP427388   0.272   0.801   4.217  0.3425 -0.8242 -0.9855
17477THY    CP327389   0.432   1.034   4.234  0.8617  0.7712  0.0238
17477THY    HP527390   0.526   1.005   4.184 -0.6536 -3.5660  1.7904
17477THY    HP627391   0.444   1.126   4.292  0.2953  1.7601 -0.5167
17477THY    HP727392   0.354   1.034   4.157 -0.2528  1.8776  0.1998
17477THY    CA327393   0.586   0.853   4.485 -0.3488 -0.3579  0.7293
17477THY    HA327394   0.616   0.801   4.395 -1.8621 -0.3245 -0.2466
17477THY    CA427395   0.665   0.859   4.599 -0.1244  0.0759  0.1745
17477THY    HA427396   0.762   0.809   4.597  0.3899 -1.4676  1.1572
17477THY    CA527397   0.624   0.935   4.709  0.1680  0.6832  0.1021
17477THY    CM127398   0.719   0.945   4.822  0.4978  0.1335 -0.1795
17477THY    HM127399   0.698   1.034   4.883  2.0166 -1.5815  1.4639
17477THY    HM227400   0.824   0.931   4.796  0.4757  0.2757 -0.6085
17477THY    HM327401   0.699   0.862   4.890  2.3657 -0.0050 -0.7790
17477THY    CA627402   0.511   1.012   4.703  0.1567 -0.3455 -0.0261
17477THY    HA627403   0.491   1.092   4.773 -0.9749  0.0812 -0.6464
17478THY      O27404   8.509   4.061   3.628  0.3028 -0.1130  0.6915
17478THY     HO27405   8.577   4.061   3.558  0.8851  0.4319  0.4630
17478THY    CA127406   8.395   4.114   3.592  0.0453 -0.3762 -0.8148
17478THY    CA227407   8.269   4.080   3.648  0.0627  0.6408  0.1536
17478THY    CP127408   8.266   3.980   3.765  0.1089 -0.1651 -0.3914
17478THY    HP127409   8.347   4.014   3.830 -0.9958  1.1743 -0.2525
17478THY    CP227410   8.314   3.837   3.720 -0.0929  0.4076 -0.6007
17478THY    HP227411   8.402   3.842   3.654  1.8936  2.8347 -1.7098
17478THY    HP327412   8.233   3.788   3.664  0.2081  0.4123 -1.1083
17478THY    HP427413   8.344   3.781   3.809  0.7800  0.5428  0.0538
17478THY    CP327414   8.134   3.967   3.845 -0.3388 -0.2324 -0.3075
17478THY    HP527415   8.053   3.975   3.771  0.0097 -0.6534 -0.5992
17478THY    HP627416   8.133   4.045   3.922  0.0181  0.0922 -0.6229
17478THY    HP727417   8.125   3.877   3.906 -0.4223  0.2099 -0.0000
17478THY    CA327418   8.156   4.141   3.593 -0.5032 -0.2705 -0.3600
17478THY    HA327419   8.055   4.113   3.622 -1.3592 -1.0959  1.6520
17478THY    CA427420   8.164   4.242   3.495 -0.4854 -0.8253 -0.6827
17478THY    HA427421   8.078   4.299   3.459  0.4818  0.7346  1.9267
17478THY    CA527422   8.293   4.285   3.457  0.2571 -0.7664 -0.3661
17478THY    CM127423   8.296   4.394   3.356  0.5142 -0.0998 -0.4689
17478THY    HM127424   8.224   4.469   3.390 -0.0497 -0.3827 -0.8696
17478THY    HM227425   8.259   4.357   3.259  0.4602 -0.3563  0.2386
17478THY    HM327426   8.399   4.431   3.365  0.6860  0.7803 -1.1386
17478THY    CA627427   8.408   4.217   3.499  0.7222 -0.2851  0.3399
17478THY    HA627428   8.506   4.248   3.465  1.7881  0.7249 -1.7199
17479THY      O27429   4.407   4.605   3.875  0.3984  0.3570 -0.5405
17479THY     HO27430   4.441   4.553   3.800 -1.6432 -0.5345 -0.6876
17479THY    CA127431   4.514   4.652   3.937  0.7481  0.4724  0.4448
17479THY    CA227432   4.515   4.709   4.066 -0.0687  0.3793 -0.3821
17479THY    CP127433   4.388   4.716   4.146 -0.3049  0.8800 -0.0341
17479THY    HP127434   4.309   4.643   4.122 -0.8171  1.2492  0.3834
17479THY    CP227435   4.331   4.855   4.152  0.2640  0.2528  0.1425
17479THY    HP227436   4.235   4.850   4.205 -1.5405 -2.5394  2.1242
17479THY    HP327437   4.306   4.886   4.050  0.5814  0.3227  0.6409
17479THY    HP427438   4.397   4.919   4.211 -0.3258  0.7329  0.3123
17479THY    CP327439   4.427   4.668   4.287  0.1669  0.2633  0.2945
17479THY    HP527440   4.452   4.561   4.292 -0.4150  1.0707  0.1890
17479THY    HP627441   4.337   4.679   4.348  0.9898  1.3550  1.2117
17479THY    HP727442   4.507   4.724   4.336 -1.0861  2.1884  0.5046
17479THY    CA327443   4.633   4.766   4.110  0.5153  0.2653 -0.5925
17479THY    HA327444   4.640   4.816   4.205 -0.2400 -0.5178  1.0653
17479THY    CA427445   4.743   4.771   4.025  0.3151  0.4151 -0.1730
17479THY    HA427446   4.835   4.826   4.046  1.3498  0.3517 -1.8053
17479THY    CA527447   4.743   4.713   3.904 -0.2443 -0.2330  0.0653
17479THY    CM127448   4.855   4.724   3.810  0.8244  0.3026 -0.4117
17479THY    HM127449   4.852   4.816   3.751  2.0674  1.8453  0.6819
17479THY    HM227450   4.853   4.637   3.743 -0.6746 -1.3069  0.8064
17479THY    HM327451   4.945   4.731   3.873  0.7755  0.1851  1.7024
17479THY    CA627452   4.627   4.654   3.853 -0.5550 -1.0331  0.3620
17479THY    HA627453   4.626   4.616   3.751  2.2779 -0.2273 -2.2985
17480THY      O27454   1.668   5.117   5.279  0.1707 -0.6587 -0.6216
17480THY     HO27455   1.648   5.206   5.311  0.0856 -0.4871 -0.7026
17480THY    CA127456   1.801   5.092   5.302 -0.2754  0.5455  0.1469
17480THY    CA227457   1.856   4.967   5.290  0.3398  0.3617  0.5460
17480THY    CP127458   1.789   4.841   5.264  0.2172 -0.0889 -0.0094
17480THY    HP127459   1.682   4.861   5.278  0.7827  1.4343  2.2280
17480THY    CP227460   1.813   4.723   5.364 -0.6457  0.3743  0.0601
17480THY    HP227461   1.810   4.763   5.466 -0.5365  0.3153  0.2203
17480THY    HP327462   1.910   4.677   5.342 -0.7581  0.3148 -0.1521
17480THY    HP427463   1.731   4.650   5.371  0.7089 -0.5036 -1.6352
17480THY    CP327464   1.822   4.790   5.124 -0.1952  0.0619 -0.2075
17480THY    HP527465   1.763   4.704   5.089 -0.1118 -1.1668  0.2069
17480THY    HP627466   1.927   4.758   5.124 -0.8153 -1.0649 -2.4278
17480THY    HP727467   1.802   4.872   5.053  0.5813  1.5259  1.2962
17480THY    CA327468   1.993   4.961   5.285 -0.3922  0.4933  0.0724
17480THY    HA327469   2.036   4.863   5.270 -1.3285  2.8073 -0.7597
17480THY    CA427470   2.076   5.066   5.323 -0.1114  0.2956  0.1099
17480THY    HA427471   2.182   5.065   5.302 -0.5554 -2.7415  2.2217
17480THY    CA527472   2.019   5.190   5.349  0.2683  0.2348 -0.1354
17480THY    CM127473   2.106   5.302   5.397  0.8271  0.4103 -0.0345
17480THY    HM127474   2.157   5.276   5.491  2.5722 -0.8733 -1.5161
17480THY    HM227475   2.050   5.395   5.414  0.6773  1.1649 -0.2556
17480THY    HM327476   2.185   5.335   5.329 -0.5949 -2.0402 -1.3443
17480THY    CA627477   1.880   5.201   5.332 -0.6336 -0.4488  0.6054
17480THY    HA627478   1.825   5.290   5.360 -1.5829 -0.5527  0.0635
17481THY      O27479   4.807   8.321   4.837  0.3414  0.0205  0.3603
17481THY     HO27480   4.746   8.247   4.858 -0.7238 -0.1171  1.1761
17481THY    CA127481   4.936   8.269   4.832  0.5373 -0.5791  1.3545
17481THY    CA227482   5.049   8.332   4.775 -0.4536  0.1024  0.4596
17481THY    CP127483   5.032   8.471   4.716  0.7671 -1.1583 -0.6803
17481THY    HP127484   4.986   8.536   4.791  2.6395 -2.1687  1.9575
17481THY    CP227485   4.943   8.475   4.597  0.7608 -0.0249 -0.5522
17481THY    HP227486   4.983   8.424   4.509  1.2751 -0.2540  0.2366
17481THY    HP327487   4.910   8.576   4.568  2.2013  1.1187  0.2913
17481THY    HP427488   4.853   8.422   4.631  1.2602  0.8359 -0.8842
17481THY    CP327489   5.165   8.541   4.688  0.2632 -0.2176  0.1984
17481THY    HP527490   5.155   8.640   4.644  1.5283 -0.4706  0.2366
17481THY    HP627491   5.229   8.491   4.613 -1.1326 -1.4438  0.2073
17481THY    HP727492   5.226   8.563   4.777  3.3624 -2.5305  1.7715
17481THY    CA327493   5.167   8.263   4.776  0.2472 -0.1101 -0.0964
17481THY    HA327494   5.262   8.295   4.734 -1.0390 -2.3538  1.0404
17481THY    CA427495   5.180   8.128   4.828 -0.0570  0.4984  0.2791
17481THY    HA427496   5.276   8.079   4.836 -0.0572 -1.4254 -0.0984
17481THY    CA527497   5.061   8.064   4.871 -0.0245 -0.1632 -0.0208
17481THY    CM127498   5.049   7.923   4.911 -0.5203 -0.0701  0.0146
17481THY    HM127499   5.083   7.906   5.014  1.9303 -0.0058  3.9325
17481THY    HM227500   5.112   7.846   4.866  0.2906 -0.1401  0.7014
17481THY    HM327501   4.946   7.887   4.917 -0.7014  1.1699  0.6839
17481THY    CA627502   4.944   8.137   4.873  0.8120  0.1189  0.1543
17481THY    HA627503   4.849   8.090   4.896 -0.3190 -2.8576  0.6973
17482THY      O27504   8.841   5.370   5.131 -0.6605  0.4507  0.4012
17482THY     HO27505   8.928   5.410   5.110 -0.6215  0.0232  0.0971
17482THY    CA127506   8.836   5.343   5.260  0.1206  0.8778  0.3091
17482THY    CA227507   8.721   5.337   5.335 -0.1857 -0.8153 -0.3098
17482THY    CP127508   8.588   5.377   5.276  0.5028  0.3564 -0.2399
17482THY    HP127509   8.588   5.360   5.168  0.1303  0.4536 -0.8815
17482THY    CP227510   8.561   5.523   5.300 -0.6183 -0.5133 -0.1909
17482THY    HP227511   8.562   5.534   5.409  0.9529 -0.5203  0.0388
17482THY    HP327512   8.470   5.563   5.254  0.4143 -1.7588  0.8443
17482THY    HP427513   8.643   5.587   5.264 -0.9523 -0.5459  0.2251
17482THY    CP327514   8.472   5.288   5.328  0.1098  0.2704 -0.2039
17482THY    HP527515   8.390   5.293   5.255 -0.4695  0.5330 -3.4642
17482THY    HP627516   8.445   5.298   5.434 -0.7532 -0.0129  0.5937
17482THY    HP727517   8.505   5.185   5.311  1.4231 -1.7574  0.4938
17482THY    CA327518   8.725   5.301   5.474  0.2219  1.1755  0.2565
17482THY    HA327519   8.644   5.300   5.546  0.5458  1.5395 -0.3095
17482THY    CA427520   8.854   5.273   5.528 -0.4339 -0.3924 -0.5732
17482THY    HA427521   8.857   5.247   5.634 -0.9183  0.0616  1.0979
17482THY    CA527522   8.970   5.278   5.453 -0.3042 -0.2396 -0.5000
17482THY    CM127523   9.108   5.248   5.516 -0.1271  0.3350  0.1474
17482THY    HM127524   9.160   5.345   5.520  0.4165  0.7976 -0.1601
17482THY    HM227525   9.161   5.164   5.471  2.2793 -0.5698  2.0362
17482THY    HM327526   9.100   5.216   5.620  0.8755  0.0875 -0.9645
17482THY    CA627527   8.962   5.308   5.322  0.3654 -0.0060 -0.5748
17482THY    HA627528   9.052   5.303   5.261  0.3841 -0.1057  0.6455
17483THY      O27529   5.681   6.476   6.187  0.0036  0.6001 -0.0907
17483THY     HO27530   5.685   6.403   6.122  0.9906  0.4575  0.0770
17483THY    CA127531   5.793   6.481   6.260  0.0962  0.1362 -0.2626
17483THY    CA227532   5.819   6.557   6.376 -0.2373  0.6246  0.3053
17483THY    CP127533   5.702   6.651   6.424  0.1332  0.3462  0.3376
17483THY    HP127534   5.617   6.635   6.356  0.1829  0.4538 -0.4349
17483THY    CP227535   5.725   6.799   6.411 -0.4603  0.6498  0.5958
17483THY    HP227536   5.764   6.816   6.310  0.3835  0.3369 -2.6248
17483THY    HP327537   5.796   6.845   6.482 -1.0139  0.3886  1.9080
17483THY    HP427538   5.639   6.865   6.428  0.5384 -1.2269  2.5099
17483THY    CP327539   5.648   6.615   6.557 -0.6571 -0.1806  0.3447
17483THY    HP527540   5.610   6.513   6.568  1.0658  0.6502 -0.2477
17483THY    HP627541   5.570   6.689   6.580  1.1530 -0.0337  2.3422
17483THY    HP727542   5.729   6.621   6.630  0.5102 -1.4736  1.1787
17483THY    CA327543   5.932   6.535   6.459 -0.6861 -0.1809 -0.0074
17483THY    HA327544   5.955   6.595   6.547 -0.6257 -0.4125  0.3146
17483THY    CA427545   6.026   6.446   6.409 -0.8501 -0.0420  0.0981
17483THY    HA427546   6.114   6.430   6.472 -1.0029  0.1877  0.1608
17483THY    CA527547   6.011   6.378   6.284 -0.0600 -0.4200 -0.7364
17483THY    CM127548   6.111   6.289   6.226 -0.2934  0.3353 -0.0196
17483THY    HM127549   6.164   6.233   6.304 -1.2452  0.7971 -0.2912
17483THY    HM227550   6.189   6.344   6.172 -2.6433 -0.7554  2.5052
17483THY    HM327551   6.054   6.216   6.166 -0.8497 -0.0014  0.6846
17483THY    CA627552   5.895   6.395   6.209  0.4329  0.4404 -0.3143
17483THY    HA627553   5.876   6.344   6.115  1.0398  1.7012 -3.0881
17484THY      O27554   5.461   8.581   2.826  0.5907  0.1371  0.2348
17484THY     HO27555   5.474   8.602   2.921 -1.7636  0.9285 -1.5106
17484THY    CA127556   5.539   8.472   2.811 -1.1572 -0.0594  0.1547
17484THY    CA227557   5.534   8.391   2.703 -0.0837  0.6420 -0.2248
17484THY    CP127558   5.435   8.420   2.584  0.3311 -0.0798 -0.3426
17484THY    HP127559   5.368   8.504   2.605 -1.4205  0.7256 -1.8692
17484THY    CP227560   5.346   8.294   2.553 -0.1709 -0.3414 -0.7197
17484THY    HP227561   5.274   8.330   2.479 -0.0259 -0.0690  0.1398
17484THY    HP327562   5.294   8.250   2.639 -1.6035 -0.2233  1.1051
17484THY    HP427563   5.412   8.214   2.520  1.8624  3.5777 -0.9059
17484THY    CP327564   5.507   8.469   2.463  0.1644 -0.1856  0.2901
17484THY    HP527565   5.583   8.398   2.429 -1.2541 -0.0514 -1.3743
17484THY    HP627566   5.525   8.577   2.467 -0.5054 -2.8791  0.5738
17484THY    HP727567   5.435   8.465   2.380 -1.4064  1.1431 -0.4250
17484THY    CA327568   5.629   8.290   2.679  0.2956 -1.0106  0.3761
17484THY    HA327569   5.632   8.229   2.589 -0.2351  0.1184 -1.3936
17484THY    CA427570   5.720   8.268   2.783 -0.8582  0.1293 -0.1832
17484THY    HA427571   5.801   8.196   2.772  0.1471  0.9903  0.7887
17484THY    CA527572   5.724   8.352   2.899  0.0791 -0.1193  0.1751
17484THY    CM127573   5.818   8.333   3.011 -0.2943 -0.0546  0.3752
17484THY    HM127574   5.900   8.403   2.991  0.8752 -0.7749 -1.1176
17484THY    HM227575   5.850   8.228   3.002 -3.2113  0.0476 -0.5945
17484THY    HM327576   5.771   8.343   3.110  0.8086  0.4433  0.8965
17484THY    CA627577   5.631   8.448   2.916 -0.1093 -0.8244 -0.2405
17484THY    HA627578   5.631   8.499   3.012  1.4081  0.2830 -2.2076
17485THY      O27579   3.871   8.845   4.009 -0.5347  0.2760  0.1086
17485THY     HO27580   3.823   8.927   4.028  0.5423 -0.4874  0.9440
17485THY    CA127581   3.925   8.809   4.121 -1.0551  0.0439 -0.3964
17485THY    CA227582   4.041   8.726   4.135  0.2342 -0.6735 -0.4873
17485THY    CP127583   4.113   8.676   4.010  0.8337  0.5328 -0.8789
17485THY    HP127584   4.100   8.753   3.933  0.7826  2.7530  1.4804
17485THY    CP227585   4.050   8.548   3.953 -1.0134 -0.0316 -0.1169
17485THY    HP227586   3.950   8.567   3.910 -0.8346 -0.4873 -0.2005
17485THY    HP327587   4.051   8.469   4.029 -0.5785  0.1654  0.0785
17485THY    HP427588   4.121   8.527   3.873  1.2790  1.3136  2.0312
17485THY    CP327589   4.260   8.674   4.028 -0.2758  0.1708 -0.3959
17485THY    HP527590   4.291   8.584   4.083 -0.8120  0.5699 -0.3449
17485THY    HP627591   4.298   8.766   4.074 -2.4116 -2.0173  1.7004
17485THY    HP727592   4.305   8.669   3.928 -2.9732 -1.0755 -1.7332
17485THY    CA327593   4.075   8.686   4.268 -0.0708 -0.3037 -0.0621
17485THY    HA327594   4.165   8.627   4.285 -1.0410 -0.1937 -1.5679
17485THY    CA427595   4.011   8.739   4.382  0.1286  0.2925  0.2632
17485THY    HA427596   4.037   8.707   4.482  0.9633 -0.6407 -2.2648
17485THY    CA527597   3.907   8.831   4.366  0.3488  0.5044  0.1145
17485THY    CM127598   3.839   8.887   4.483  0.0032 -0.2185  0.7273
17485THY    HM127599   3.744   8.839   4.511 -0.4292 -2.1037  0.3921
17485THY    HM227600   3.816   8.994   4.485  0.5809  0.7723  0.8456
17485THY    HM327601   3.908   8.878   4.568 -0.4704  0.1535  0.5701
17485THY    CA627602   3.867   8.865   4.240  0.2092  0.1531  0.1527
17485THY    HA627603   3.782   8.930   4.227 -0.1871  0.6235 -0.2640
17486THY      O27604   8.309   7.183   4.602 -0.5230  0.4960  0.4806
17486THY     HO27605   8.269   7.265   4.635  0.6567  0.0714  1.2554
17486THY    CA127606   8.440   7.187   4.652  0.8242 -0.1770 -0.4071
17486THY    CA227607   8.540   7.091   4.622  0.5142 -0.1879  0.1157
17486THY    CP127608   8.496   6.974   4.528  0.2633 -0.4703 -0.0653
17486THY    HP127609   8.389   6.951   4.540 -0.2037 -2.1808  1.0486
17486THY    CP227610   8.578   6.840   4.543  0.1362  0.0051 -0.3593
17486THY    HP227611   8.545   6.757   4.479  0.5033  0.4790 -0.8814
17486THY    HP327612   8.575   6.806   4.647  1.7389  1.1327  2.5587
17486THY    HP427613   8.685   6.866   4.537  0.0252  1.3427  0.5017
17486THY    CP327614   8.514   7.026   4.386  0.1992 -0.1807 -0.3457
17486THY    HP527615   8.474   6.950   4.317  0.9186 -2.4014  1.1743
17486THY    HP627616   8.613   7.061   4.356  1.6453  1.1593 -2.9946
17486THY    HP727617   8.447   7.112   4.378 -2.1679 -1.2008 -2.1554
17486THY    CA327618   8.669   7.109   4.676  0.0338  0.3716 -0.7581
17486THY    HA327619   8.753   7.046   4.646  1.7012  1.1144  0.9927
17486THY    CA427620   8.697   7.217   4.761  0.8948 -0.0077 -0.4542
17486THY    HA427621   8.790   7.219   4.818  0.1406  1.2934 -1.2604
17486THY    CA527622   8.601   7.314   4.784 -0.2962  0.3289 -0.3432
17486THY    CM127623   8.628   7.431   4.877  0.1867 -0.2757  0.0177
17486THY    HM127624   8.711   7.405   4.944  1.3038 -1.7124 -0.2764
17486THY    HM227625   8.540   7.453   4.938  1.6576  3.4446 -3.1589
17486THY    HM327626   8.663   7.519   4.822  2.7873  2.4180  0.8232
17486THY    CA627627   8.473   7.297   4.729  0.4750  0.6631 -0.8099
17486THY    HA627628   8.401   7.374   4.753  0.5042  0.5067 -0.7332
17487THY      O27629   5.150   7.591   3.002 -0.4290 -0.1183  0.5498
17487THY     HO27630   5.164   7.542   3.085 -1.0497 -0.1335  0.3384
17487THY    CA127631   5.280   7.625   2.959  0.9346  0.3753  0.4781
17487THY    CA227632   5.302   7.691   2.835 -0.2090  0.0735  0.2832
17487THY    CP127633   5.189   7.739   2.749  0.4067 -0.0659  0.3208
17487THY    HP127634   5.093   7.718   2.798  0.6648  0.8103  1.1069
17487THY    CP227635   5.197   7.671   2.614 -0.2832 -0.1885 -0.0420
17487THY    HP227636   5.284   7.700   2.554 -1.4638 -2.0403 -0.1427
17487THY    HP327637   5.111   7.707   2.557  0.4749 -1.1972  0.2277
17487THY    HP427638   5.199   7.563   2.635  0.0837  0.2107  0.0378
17487THY    CP327639   5.196   7.893   2.743 -0.4001  0.1499 -0.9615
17487THY    HP527640   5.297   7.931   2.721 -1.1302 -2.4878 -0.3317
17487THY    HP627641   5.169   7.925   2.844 -0.9823  0.1757 -1.5195
17487THY    HP727642   5.125   7.922   2.665 -2.1208  0.6305 -3.5633
17487THY    CA327643   5.437   7.719   2.800  0.4708  0.4945  0.0643
17487THY    HA327644   5.456   7.751   2.697  0.6517  0.8945  1.2967
17487THY    CA427645   5.532   7.714   2.904 -0.1529  0.2387  0.0483
17487THY    HA427646   5.632   7.753   2.891 -0.6290  2.5758  2.2845
17487THY    CA527647   5.505   7.654   3.029 -0.3072 -0.1998 -0.1279
17487THY    CM127648   5.618   7.643   3.131 -0.4792  0.2841  0.0695
17487THY    HM127649   5.644   7.734   3.187 -1.1208  0.2282  0.2898
17487THY    HM227650   5.708   7.614   3.076  0.7357  2.0791  0.3076
17487THY    HM327651   5.600   7.566   3.207  0.3216  1.5927  1.1218
17487THY    CA627652   5.382   7.599   3.044  0.0105 -0.7876 -0.4424
17487THY    HA627653   5.367   7.564   3.146  0.6659 -0.4260  0.3053
17488THY      O27654   1.731   8.632   4.095 -0.1625  0.1581 -0.5186
17488THY     HO27655   1.755   8.539   4.107  1.7134  1.8635  0.1151
17488THY    CA127656   1.854   8.690   4.086 -0.0447 -0.3158 -0.0682
17488THY    CA227657   1.870   8.833   4.067  0.6681 -0.1053 -0.1051
17488THY    CP127658   1.752   8.924   4.066  0.4592 -0.2488 -0.3363
17488THY    HP127659   1.677   8.889   4.139  0.4058 -0.6814 -1.1376
17488THY    CP227660   1.686   8.922   3.929  0.3215  0.1661  0.6761
17488THY    HP227661   1.600   8.990   3.935  0.1003  2.0155  0.2858
17488THY    HP327662   1.644   8.824   3.905 -1.0627 -1.5305  1.5988
17488THY    HP427663   1.756   8.951   3.850  0.0632  0.0803  1.0878
17488THY    CP327664   1.777   9.069   4.097  0.2528  0.4646 -0.0047
17488THY    HP527665   1.844   9.092   4.180  0.6836 -0.3582  1.8786
17488THY    HP627666   1.686   9.126   4.117  0.7096  0.9990  0.5539
17488THY    HP727667   1.832   9.108   4.010 -1.6538 -0.5495  0.5573
17488THY    CA327668   1.998   8.885   4.074 -0.1283  0.5040  0.3875
17488THY    HA327669   2.020   8.991   4.063 -0.3593  2.2014  0.6497
17488THY    CA427670   2.111   8.797   4.091  0.1589 -0.3470 -0.4291
17488THY    HA427671   2.209   8.843   4.091 -0.0842 -0.6096  0.0964
17488THY    CA527672   2.097   8.661   4.090 -0.6439  0.3689  0.5348
17488THY    CM127673   2.217   8.571   4.090 -0.6398  0.4522  0.6149
17488THY    HM127674   2.306   8.623   4.053 -0.9336  0.0476  0.8351
17488THY    HM227675   2.207   8.478   4.034 -0.6636  1.5723 -0.0744
17488THY    HM327676   2.242   8.531   4.188  0.4699  0.6976  1.8358
17488THY    CA627677   1.969   8.615   4.104  0.6695  0.4419  0.2766
17488THY    HA627678   1.960   8.507   4.115  1.5462 -0.4342  0.0977
17489THY      O27679   0.914   3.153   2.468 -0.2874 -0.0875 -0.1509
17489THY     HO27680   0.859   3.125   2.543 -1.6282 -0.0190  2.3661
17489THY    CA127681   1.037   3.099   2.493  1.2692 -0.0962  0.0726
17489THY    CA227682   1.142   3.143   2.412 -0.0349 -0.4007 -0.1154
17489THY    CP127683   1.125   3.245   2.309  0.1080  0.2416 -0.1535
17489THY    HP127684   1.030   3.298   2.312  0.0705  0.0270 -0.2068
17489THY    CP227685   1.118   3.186   2.168  0.1667 -0.3522  0.1336
17489THY    HP227686   1.043   3.105   2.167 -0.5233  0.3522  0.7462
17489THY    HP327687   1.219   3.149   2.148  1.7965 -1.3199  4.4682
17489THY    HP427688   1.111   3.275   2.104 -2.1068  0.5660  0.7137
17489THY    CP327689   1.225   3.359   2.319  0.4398 -0.5116 -0.1632
17489THY    HP527690   1.318   3.313   2.282  0.4870  1.4735 -1.8086
17489THY    HP627691   1.234   3.411   2.415  0.8205 -1.0542  0.8106
17489THY    HP727692   1.198   3.436   2.246  1.0479  1.0405  1.5857
17489THY    CA327693   1.272   3.096   2.439  0.0626  0.2538  0.1618
17489THY    HA327694   1.358   3.108   2.375 -0.4066 -1.3943 -3.6386
17489THY    CA427695   1.279   2.993   2.537 -0.4504 -0.1821  0.2278
17489THY    HA427696   1.375   2.949   2.560  0.4419  1.5499  2.8586
17489THY    CA527697   1.164   2.935   2.600 -0.3905 -0.1265  0.2796
17489THY    CM127698   1.166   2.822   2.701  0.2589  0.4170 -0.3403
17489THY    HM127699   1.071   2.770   2.714  0.2802 -0.6275 -0.6690
17489THY    HM227700   1.178   2.859   2.803 -0.6378  0.5876 -0.4964
17489THY    HM327701   1.240   2.746   2.674 -1.0595 -0.1141 -1.4755
17489THY    CA627702   1.046   3.007   2.597 -0.0560 -0.0565 -0.0551
17489THY    HA627703   0.967   2.981   2.667 -1.2738 -0.6112  1.9237
17490THY      O27704   2.895   8.800   1.827 -0.5280  0.1552 -0.3120
17490THY     HO27705   2.860   8.718   1.787  2.0532 -2.3751 -0.3031
17490THY    CA127706   2.810   8.835   1.922  0.3306 -0.2664 -0.5275
17490THY    CA227707   2.856   8.909   2.033 -0.0850 -0.7618  0.7155
17490THY    CP127708   3.005   8.955   2.042  0.2427 -0.3050 -0.8145
17490THY    HP127709   3.063   8.905   1.964 -0.1259 -1.2877  0.2294
17490THY    CP227710   3.059   8.923   2.181 -0.0654  0.2155 -0.5890
17490THY    HP227711   3.058   8.816   2.206 -0.0334 -0.2818 -0.7054
17490THY    HP327712   3.016   8.989   2.257  0.9755  0.1192  0.2260
17490THY    HP427713   3.161   8.962   2.174 -0.0155  2.0250 -0.3156
17490THY    CP327714   3.018   9.103   2.020  0.0874 -0.4820 -0.4147
17490THY    HP527715   3.122   9.135   2.013  0.4346  1.0014 -1.1135
17490THY    HP627716   2.972   9.161   2.101  1.9121  1.7298 -1.8834
17490THY    HP727717   2.964   9.138   1.931  0.3634  0.1411  1.7220
17490THY    CA327718   2.759   8.949   2.129  0.0170  0.1617 -0.0654
17490THY    HA327719   2.792   9.012   2.212  0.9632  0.1127 -0.4785
17490THY    CA427720   2.626   8.915   2.106 -0.2173 -0.0330 -0.0273
17490THY    HA427721   2.546   8.948   2.172 -0.2171 -0.5253  1.0254
17490THY    CA527722   2.585   8.835   2.003 -0.5629 -0.1523  0.3153
17490THY    CM127723   2.437   8.795   1.989 -0.2056 -0.5803 -0.5935
17490THY    HM127724   2.373   8.845   2.063  2.7437  2.0755 -0.4125
17490THY    HM227725   2.423   8.693   2.027 -0.9906  0.0843 -0.2465
17490THY    HM327726   2.394   8.799   1.888  0.6834 -1.1079 -2.6896
17490THY    CA627727   2.678   8.791   1.914  0.5465  0.5902 -0.6557
17490THY    HA627728   2.654   8.729   1.828  0.7165 -1.1829  1.6355
17491THY      O27729   8.959   0.736   7.189 -0.1012 -0.3697 -0.7212
17491THY     HO27730   8.932   0.696   7.104  1.1836 -2.4901  2.5269
17491THY    CA127731   9.093   0.704   7.199  0.7990 -0.2412  0.3728
17491THY    CA227732   9.172   0.740   7.307 -0.1330 -0.7697 -0.0972
17491THY    CP127733   9.113   0.826   7.418  0.5248  0.3998 -0.2590
17491THY    HP127734   9.030   0.874   7.364  2.4930 -0.3959  2.4691
17491THY    CP227735   9.202   0.941   7.472  0.2831  0.0229 -0.3415
17491THY    HP227736   9.154   1.002   7.550  0.2517  0.1792 -0.5659
17491THY    HP327737   9.231   1.007   7.389 -1.9214 -1.4422 -1.0832
17491THY    HP427738   9.289   0.890   7.513  0.2483  0.6675  0.1060
17491THY    CP327739   9.059   0.750   7.542  0.3984 -0.3921  0.1082
17491THY    HP527740   9.048   0.826   7.621 -1.0457 -0.0522 -0.4232
17491THY    HP627741   9.139   0.680   7.569  1.6995  0.2771  1.7788
17491THY    HP727742   8.959   0.710   7.522  0.6976 -0.1776 -0.7522
17491THY    CA327743   9.306   0.694   7.323  0.2255  0.3630 -0.0145
17491THY    HA327744   9.360   0.716   7.414  1.3679 -0.8717  2.8097
17491THY    CA427745   9.367   0.624   7.220 -0.1746 -0.0293  0.0153
17491THY    HA427746   9.469   0.588   7.223 -0.1192  0.5343  0.2075
17491THY    CA527747   9.287   0.592   7.103 -0.5084 -0.2826 -0.4977
17491THY    CM127748   9.343   0.513   6.993 -0.0890  0.2197  0.0160
17491THY    HM127749   9.302   0.412   6.993  0.1412 -0.6723 -0.0830
17491THY    HM227750   9.450   0.495   7.008 -0.1803  0.3657 -0.4184
17491THY    HM327751   9.335   0.557   6.893 -0.2731 -0.1707 -0.8965
17491THY    CA627752   9.147   0.617   7.104 -0.5581 -0.2483  0.4300
17491THY    HA627753   9.088   0.582   7.020  0.5396 -0.5911 -0.6722
17492THY      O27754   9.103   4.602   4.434  0.2108  0.0982  0.6593
17492THY     HO27755   9.173   4.670   4.437  1.4995 -0.2773 -0.6081
17492THY    CA127756   9.135   4.514   4.522 -0.6719  0.2829  0.1623
17492THY    CA227757   9.069   4.389   4.536 -0.2658  0.6857 -0.6944
17492THY    CP127758   8.956   4.343   4.439  0.2863  0.2660 -0.0215
17492THY    HP127759   8.921   4.420   4.370 -1.8616  0.5186 -0.7083
17492THY    CP227760   8.836   4.300   4.536  0.2669  1.3781  0.0475
17492THY    HP227761   8.756   4.261   4.472  0.2419  1.8609 -0.7012
17492THY    HP327762   8.793   4.385   4.591 -1.9369 -1.3238  0.8517
17492THY    HP427763   8.864   4.217   4.601  0.6610 -0.5834 -1.4370
17492THY    CP327764   9.011   4.232   4.344  0.9386 -0.1168  0.2221
17492THY    HP527765   9.021   4.132   4.386 -0.4123 -1.0450 -0.3312
17492THY    HP627766   9.114   4.260   4.321  1.6655 -0.5574 -2.5212
17492THY    HP727767   8.945   4.229   4.256  0.2284  0.2753  2.2747
17492THY    CA327768   9.133   4.287   4.617 -0.7222  0.1069 -0.6037
17492THY    HA327769   9.094   4.186   4.618 -1.7345  1.4641 -0.2226
17492THY    CA427770   9.253   4.322   4.694  1.1721 -0.5747  0.3266
17492THY    HA427771   9.302   4.257   4.766 -0.2960 -0.8116 -1.1190
17492THY    CA527772   9.305   4.446   4.676  0.5135  0.0716 -0.6139
17492THY    CM127773   9.425   4.488   4.755 -0.6858  0.8456  0.3309
17492THY    HM127774   9.426   4.433   4.849  2.3312  1.4006  1.1632
17492THY    HM227775   9.432   4.597   4.770 -2.0178  1.9619  0.2947
17492THY    HM327776   9.514   4.456   4.700 -0.1917  0.9623  1.4392
17492THY    CA627777   9.244   4.544   4.604 -0.0377 -0.1630 -0.9403
17492THY    HA627778   9.302   4.636   4.603  1.0899  1.3477 -1.5900
17493THY      O27779   0.348   0.732   6.092 -0.1843  0.5219 -0.2978
17493THY     HO27780   0.355   0.788   6.012  3.1296  0.9790  0.1510
17493THY    CA127781   0.434   0.785   6.193 -0.8501  0.2241  0.7044
17493THY    CA227782   0.421   0.748   6.330 -0.2783  0.0909 -0.2577
17493THY    CP127783   0.307   0.655   6.364 -0.2724 -0.3162 -0.4207
17493THY    HP127784   0.235   0.663   6.282  0.2482 -0.7017  0.5065
17493THY    CP227785   0.227   0.691   6.498  0.4442 -0.1360  0.1447
17493THY    HP227786   0.299   0.701   6.579  1.2596 -0.6356 -1.3275
17493THY    HP327787   0.152   0.614   6.521 -1.5763 -0.2987  1.9562
17493THY    HP427788   0.158   0.776   6.492 -2.6183 -0.9121 -2.1825
17493THY    CP327789   0.355   0.510   6.367 -0.4196  0.0855 -0.3586
17493THY    HP527790   0.443   0.484   6.428 -0.0766 -0.7046 -1.1041
17493THY    HP627791   0.382   0.476   6.266  0.0463  0.6453 -1.7438
17493THY    HP727792   0.272   0.446   6.401 -0.1135 -0.2284 -0.9318
17493THY    CA327793   0.513   0.810   6.423 -0.4859 -0.6786  0.9485
17493THY    HA327794   0.503   0.787   6.529 -0.8156 -1.0267 -0.6212
17493THY    CA427795   0.608   0.902   6.372 -0.7192  0.4460  0.0454
17493THY    HA427796   0.668   0.961   6.441 -1.0324 -0.3566  1.3665
17493THY    CA527797   0.640   0.925   6.236 -0.1282 -0.1814 -0.5739
17493THY    CM127798   0.732   1.037   6.185  0.5142 -0.4585  0.1250
17493THY    HM127799   0.822   0.997   6.137  1.5707 -1.1084  2.9990
17493THY    HM227800   0.749   1.105   6.269  0.4108 -0.2125 -0.1498
17493THY    HM327801   0.685   1.087   6.099 -0.6317  0.3990  0.5744
17493THY    CA627802   0.540   0.872   6.149 -0.1366 -0.4257 -0.1213
17493THY    HA627803   0.539   0.901   6.044  0.4732 -0.0473  1.3639
17494THY      O27804   3.619   8.954   5.856  0.2885  0.6807 -0.0348
17494THY     HO27805   3.694   8.983   5.802 -0.8298  0.4282  2.6067
17494THY    CA127806   3.533   9.055   5.870  0.3454 -0.1024  0.9324
17494THY    CA227807   3.392   9.026   5.887 -0.2466 -0.2644 -0.8152
17494THY    CP127808   3.337   8.883   5.876  0.4696 -0.1815 -0.3782
17494THY    HP127809   3.409   8.804   5.850 -1.6429  2.7321 -3.5479
17494THY    CP227810   3.244   8.868   5.760 -0.3779 -0.4125  0.1524
17494THY    HP227811   3.293   8.917   5.675 -1.6893  0.6117  3.5273
17494THY    HP327812   3.150   8.918   5.787 -1.1635 -0.8131 -1.0760
17494THY    HP427813   3.227   8.762   5.740  0.0360 -1.0806  0.2067
17494THY    CP327814   3.269   8.834   6.014 -0.4113  0.3920  0.0550
17494THY    HP527815   3.185   8.766   5.994 -0.0478 -2.8153  0.3864
17494THY    HP627816   3.252   8.925   6.072  0.8446  0.5120  0.2217
17494THY    HP727817   3.339   8.777   6.075 -0.0061  0.9154  1.0986
17494THY    CA327818   3.302   9.131   5.892 -0.0531  0.1224  0.0799
17494THY    HA327819   3.196   9.106   5.895 -0.0368 -0.9843 -0.1598
17494THY    CA427820   3.347   9.260   5.885  0.2256  0.5801  0.1662
17494THY    HA427821   3.277   9.342   5.891  1.1556  1.4612  0.9196
17494THY    CA527822   3.485   9.292   5.873 -1.3021 -0.1857  0.6959
17494THY    CM127823   3.535   9.432   5.871 -0.4094 -0.0075 -0.1548
17494THY    HM127824   3.462   9.495   5.819 -0.9425  0.7279 -0.1522
17494THY    HM227825   3.624   9.435   5.806  0.7899  1.5842  1.2828
17494THY    HM327826   3.565   9.479   5.966  1.2102  0.3190 -1.6995
17494THY    CA627827   3.578   9.188   5.878  0.2075 -0.2977  0.2059
17494THY    HA627828   3.685   9.208   5.872  0.4952  0.1911 -1.1386
17495THY      O27829   0.481   7.972   7.059 -0.1616  0.4795 -0.1842
17495THY     HO27830   0.521   7.978   6.971 -1.1639  0.0852  1.1780
17495THY    CA127831   0.437   8.099   7.084 -0.2449 -0.8112 -0.4683
17495THY    CA227832   0.419   8.160   7.214 -0.3333 -0.2483  0.1487
17495THY    CP127833   0.461   8.086   7.340 -0.5464  0.2635 -0.1186
17495THY    HP127834   0.477   7.980   7.316 -1.0069 -0.4185 -0.0413
17495THY    CP227835   0.349   8.091   7.453 -0.0722 -0.3833 -0.6758
17495THY    HP227836   0.362   8.016   7.532  2.2958 -0.1068 -0.0467
17495THY    HP327837   0.247   8.093   7.412  0.0148 -0.6380  2.5328
17495THY    HP427838   0.361   8.191   7.494  0.3500 -1.1610 -0.4000
17495THY    CP327839   0.597   8.136   7.396  0.0724  0.2161  0.3610
17495THY    HP527840   0.686   8.109   7.339  0.2357  1.0842 -1.0155
17495THY    HP627841   0.610   8.076   7.487 -0.1849  1.0165  1.4710
17495THY    HP727842   0.597   8.243   7.423 -1.2233  1.8342 -0.0076
17495THY    CA327843   0.362   8.291   7.229 -0.0655 -0.1754  0.5197
17495THY    HA327844   0.340   8.325   7.329 -1.4321  0.3092 -1.5680
17495THY    CA427845   0.307   8.349   7.113  0.3960  0.2569  0.1459
17495THY    HA427846   0.262   8.447   7.124  2.4230  1.7077  0.9947
17495THY    CA527847   0.321   8.283   6.995  0.1237  0.4359 -0.1758
17495THY    CM127848   0.249   8.327   6.867 -0.8331 -0.4112  0.3050
17495THY    HM127849   0.320   8.332   6.785 -0.0011  0.2066 -0.8361
17495THY    HM227850   0.194   8.420   6.885 -1.2754  0.4497 -0.1040
17495THY    HM327851   0.169   8.256   6.843  0.9049 -2.9352 -0.9357
17495THY    CA627852   0.387   8.161   6.976  0.1190 -0.0393  0.2442
17495THY    HA627853   0.380   8.113   6.878 -1.9373 -0.3905  1.1686
17496THY      O27854   2.527   7.030   7.058  0.4763 -0.3422 -0.1536
17496THY     HO27855   2.446   7.031   7.111  1.1868  0.8114 -1.2122
17496THY    CA127856   2.603   6.924   7.102 -0.0838  0.0122  0.2659
17496THY    CA227857   2.741   6.912   7.088 -0.2044  0.7234 -1.0236
17496THY    CP127858   2.813   7.024   7.003 -0.3061  0.1676 -0.5547
17496THY    HP127859   2.737   7.096   6.972  0.0973  1.0437  0.2700
17496THY    CP227860   2.881   6.970   6.878  0.1288  0.0497  0.7665
17496THY    HP227861   2.806   6.924   6.813 -0.3765  0.9163  0.3353
17496THY    HP327862   2.954   6.891   6.897 -1.5794  2.5681 -0.3694
17496THY    HP427863   2.917   7.058   6.824 -0.0870 -0.2663  0.6585
17496THY    CP327864   2.926   7.091   7.096 -0.2419  0.4106  0.0225
17496THY    HP527865   2.888   7.095   7.199 -0.2256  0.4522 -0.7619
17496THY    HP627866   2.963   7.188   7.060  1.0779  0.4964 -0.4265
17496THY    HP727867   3.011   7.022   7.092 -1.8573 -2.0088 -2.0146
17496THY    CA327868   2.814   6.816   7.153  0.2272  1.2537  0.6159
17496THY    HA327869   2.922   6.820   7.159  0.5298 -0.1673 -2.3327
17496THY    CA427870   2.750   6.720   7.237  0.5354  0.3795  0.1008
17496THY    HA427871   2.803   6.647   7.297  0.5373 -0.4935 -0.6383
17496THY    CA527872   2.603   6.717   7.251 -0.2290 -0.2549 -0.1990
17496THY    CM127873   2.535   6.614   7.334 -0.2932 -0.2238 -0.1448
17496THY    HM127874   2.547   6.644   7.438 -2.5262  0.1866 -0.4936
17496THY    HM227875   2.583   6.516   7.342 -1.3124 -3.3328 -1.0372
17496THY    HM327876   2.428   6.593   7.317 -0.1680  0.8714 -1.8021
17496THY    CA627877   2.537   6.817   7.173 -0.5778 -0.1947 -0.3155
17496THY    HA627878   2.431   6.825   7.197  0.0107  1.9573  2.5366
17497THY      O27879   6.045   6.613   3.468  0.1405  0.1676 -0.3392
17497THY     HO27880   6.011   6.530   3.430  3.2854 -2.8702 -0.4489
17497THY    CA127881   6.071   6.603   3.600  0.0217 -0.0001  0.3728
17497THY    CA227882   6.082   6.719   3.682 -0.2624  0.0754 -0.0783
17497THY    CP127883   6.087   6.862   3.622  0.0077 -0.7313  0.8772
17497THY    HP127884   6.093   6.846   3.514 -1.5754 -0.9783  1.6921
17497THY    CP227885   6.204   6.953   3.669  0.3631  0.7449  0.0664
17497THY    HP227886   6.189   7.008   3.763  2.7959  0.1675  1.8910
17497THY    HP327887   6.221   7.031   3.595 -0.4344  2.0848  1.5773
17497THY    HP427888   6.295   6.894   3.682  1.1758  0.7550  1.2833
17497THY    CP327889   5.950   6.917   3.651 -0.8102  0.7317 -0.1101
17497THY    HP527890   5.928   6.905   3.757 -2.1788  0.9104  3.0621
17497THY    HP627891   5.875   6.863   3.590 -1.1671  0.2047  0.9467
17497THY    HP727892   5.948   7.023   3.622 -0.9889  0.2478 -0.2403
17497THY    CA327893   6.087   6.708   3.820 -0.1209  0.0480 -0.4411
17497THY    HA327894   6.119   6.786   3.888  0.3723  0.9673 -1.4353
17497THY    CA427895   6.079   6.585   3.877  0.1671 -0.1392 -0.1029
17497THY    HA427896   6.106   6.574   3.982 -0.0811 -0.0553  0.0656
17497THY    CA527897   6.060   6.469   3.798 -0.9118 -0.4682  0.2833
17497THY    CM127898   6.050   6.333   3.863 -0.5032  0.5702  0.2600
17497THY    HM127899   5.953   6.282   3.850  0.1772  0.4309 -1.0500
17497THY    HM227900   6.069   6.355   3.968  2.1047 -0.0434  1.2912
17497THY    HM327901   6.137   6.268   3.845  0.4961  2.1116  1.1121
17497THY    CA627902   6.053   6.478   3.665  0.2488  0.2129 -0.0060
17497THY    HA627903   6.030   6.385   3.613 -1.8425 -0.6467  0.9225
17498THY      O27904   3.371   3.944   5.101 -0.0997  0.1262  0.6205
17498THY     HO27905   3.342   3.868   5.155  1.2991 -0.9346 -0.7468
17498THY    CA127906   3.266   4.001   5.053 -0.7178  0.1393  0.0429
17498THY    CA227907   3.271   4.136   5.001  0.0099 -0.7786 -0.1088
17498THY    CP127908   3.406   4.212   4.997 -0.1659  0.2565 -0.4615
17498THY    HP127909   3.491   4.144   4.980 -0.2263 -0.7649 -0.2895
17498THY    CP227910   3.439   4.265   5.136 -0.6564  0.2860 -0.2319
17498THY    HP227911   3.539   4.307   5.149 -1.3314  0.4083  1.4016
17498THY    HP327912   3.427   4.190   5.215 -1.0131 -1.1323 -1.7232
17498THY    HP427913   3.366   4.344   5.158 -0.1467  1.0526  0.0349
17498THY    CP327914   3.412   4.320   4.889 -0.4019  0.6582 -0.2912
17498THY    HP527915   3.341   4.397   4.920 -1.6548 -2.3257 -0.0982
17498THY    HP627916   3.379   4.296   4.787  1.1523 -0.2430  1.1514
17498THY    HP727917   3.515   4.356   4.893 -0.2572 -4.8644  0.7917
17498THY    CA327918   3.155   4.191   4.958 -0.3260  0.2319 -0.5033
17498THY    HA327919   3.144   4.294   4.926 -0.2679  2.1303  0.1150
17498THY    CA427920   3.031   4.118   4.954  0.1228 -0.0815 -0.1981
17498THY    HA427921   2.940   4.163   4.917  0.2011  0.0959  0.1127
17498THY    CA527922   3.029   3.983   4.992 -0.4698 -0.6826 -0.0683
17498THY    CM127923   2.897   3.902   5.006 -0.1459 -0.0246  0.2356
17498THY    HM127924   2.865   3.893   5.110  1.8070  0.5980  0.1117
17498THY    HM227925   2.922   3.803   4.966 -0.5785  1.2288 -0.3949
17498THY    HM327926   2.817   3.954   4.953 -0.0891  1.0952  1.5078
17498THY    CA627927   3.152   3.925   5.036  0.0487 -0.3711  0.0691
17498THY    HA627928   3.147   3.821   5.070  1.1697 -0.6545 -0.0858
17499THY      O27929   8.804   9.387   6.010 -0.2748 -0.2245  0.3818
17499THY     HO27930   8.748   9.371   6.088 -1.1281 -0.7859  0.6220
17499THY    CA127931   8.819   9.270   5.949  0.3242 -0.5060 -0.1694
17499THY    CA227932   8.842   9.264   5.813 -0.5877  0.4131 -0.1943
17499THY    CP127933   8.873   9.388   5.715 -0.0642 -0.2265 -0.5313
17499THY    HP127934   8.863   9.478   5.776 -2.1304 -1.8689  0.4171
17499THY    CP227935   8.761   9.397   5.610  0.4550  0.1813  0.2149
17499THY    HP227936   8.757   9.499   5.571 -1.0766  1.1276  0.5472
17499THY    HP327937   8.666   9.378   5.660 -0.3814 -1.3630  0.2338
17499THY    HP427938   8.774   9.320   5.533 -0.5480 -0.7588  0.9498
17499THY    CP327939   9.016   9.384   5.654 -0.2514  0.4820 -0.1492
17499THY    HP527940   9.092   9.407   5.729 -0.6995  0.3688  1.8467
17499THY    HP627941   9.024   9.475   5.593 -2.9777  1.1024  0.5829
17499THY    HP727942   9.049   9.295   5.599 -1.1744 -1.6258  0.7501
17499THY    CA327943   8.837   9.133   5.745  0.0037 -0.6259 -0.5026
17499THY    HA327944   8.847   9.118   5.638 -1.0543 -0.8095  0.0403
17499THY    CA427945   8.824   9.015   5.828  0.1692  0.0695  0.4599
17499THY    HA427946   8.815   8.913   5.793 -0.2464  0.3855  0.3822
17499THY    CA527947   8.811   9.028   5.971  0.7208  0.0219  0.3050
17499THY    CM127948   8.802   8.906   6.059 -0.4427  0.1805  0.5717
17499THY    HM127949   8.727   8.915   6.138 -1.4884 -0.6200 -0.7689
17499THY    HM227950   8.895   8.893   6.116 -0.6576  0.5700  0.7335
17499THY    HM327951   8.774   8.816   6.004 -0.4014  0.2315  0.5282
17499THY    CA627952   8.811   9.160   6.029 -0.6028 -0.1720 -0.3755
17499THY    HA627953   8.809   9.168   6.137 -1.2329 -0.1208 -1.0838
17500THY      O27954   6.166   5.515   6.771  0.2759 -0.1459  0.6906
17500THY     HO27955   6.187   5.563   6.689  3.1113  0.3112  0.4161
17500THY    CA127956   6.033   5.487   6.771 -0.0557  0.5895 -0.0419
17500THY    CA227957   5.970   5.381   6.839 -0.3116  0.5115  0.0169
17500THY    CP127958   6.060   5.290   6.919  0.3842  0.2262 -0.0399
17500THY    HP127959   6.163   5.325   6.932  0.6403 -0.3191 -0.5740
17500THY    CP227960   6.066   5.152   6.855 -0.6553 -0.7056  0.4306
17500THY    HP227961   5.966   5.107   6.851 -0.7903 -0.4787  0.7091
17500THY    HP327962   6.132   5.088   6.914 -1.2419  0.9025  1.2414
17500THY    HP427963   6.095   5.160   6.750 -0.6746 -0.7838 -0.4798
17500THY    CP327964   6.009   5.261   7.063 -0.6534 -0.6208  0.3123
17500THY    HP527965   5.926   5.190   7.073 -0.7373 -1.5386  0.2702
17500THY    HP627966   5.975   5.354   7.110  1.4040  2.5197 -0.3602
17500THY    HP727967   6.091   5.216   7.121  0.3014  0.3280  3.0893
17500THY    CA327968   5.827   5.371   6.847  0.0830  0.6994  0.2890
17500THY    HA327969   5.778   5.289   6.899 -0.8974 -0.0884  0.3520
17500THY    CA427970   5.753   5.480   6.800  0.8737 -0.0738  0.3687
17500THY    HA427971   5.645   5.480   6.810  0.5657 -2.2437  2.9116
17500THY    CA527972   5.817   5.582   6.730 -0.1045  0.1249 -0.0654
17500THY    CM127973   5.746   5.695   6.662  0.3848 -0.0182 -0.5012
17500THY    HM127974   5.643   5.673   6.631  0.9131 -3.2684  1.0288
17500THY    HM227975   5.807   5.743   6.585  2.0983  2.9813  2.5920
17500THY    HM327976   5.729   5.766   6.744 -0.7692 -1.1921  0.6264
17500THY    CA627977   5.954   5.583   6.712 -0.4767 -0.0631 -0.4075
17500THY    HA627978   6.002   5.670   6.668  1.6853 -2.2024 -2.5318
17501THY      O27979   5.305   1.666   5.657 -0.0298  0.0172 -0.5123
17501THY     HO27980   5.212   1.678   5.685 -0.0778 -0.3585  0.0282
17501THY    CA127981   5.296   1.569   5.563  0.1230  0.5586 -0.9401
17501THY    CA227982   5.403   1.522   5.489 -0.3471 -0.3846  0.4450
17501THY    CP127983   5.545   1.563   5.522 -0.3114  0.6481  0.0575
17501THY    HP127984   5.547   1.642   5.599  1.7161  0.4461  0.2637
17501THY    CP227985   5.619   1.627   5.405 -0.5763  0.5796  0.1988
17501THY    HP227986   5.714   1.668   5.442  1.6188 -0.7408 -3.2557
17501THY    HP327987   5.567   1.705   5.348 -0.5714  0.6970  0.2892
17501THY    HP427988   5.665   1.549   5.343  1.7808  2.8877 -0.4159
17501THY    CP327989   5.627   1.450   5.589 -0.8322 -0.3883  0.3106
17501THY    HP527990   5.697   1.399   5.522 -0.6250 -0.1463  0.2769
17501THY    HP627991   5.569   1.377   5.645  2.1440  0.4500 -1.5604
17501THY    HP727992   5.704   1.494   5.653 -0.5626 -0.8825  0.5708
17501THY    CA327993   5.391   1.425   5.384 -0.6350 -0.1575 -0.1226
17501THY    HA327994   5.477   1.400   5.322 -0.8419 -0.3337 -0.3881
17501THY    CA427995   5.260   1.384   5.354 -0.1066  0.5948  0.1782
17501THY    HA427996   5.238   1.305   5.283  0.8785 -0.7154  1.0343
17501THY    CA527997   5.152   1.423   5.434 -0.3270 -0.6924 -0.0491
17501THY    CM127998   5.009   1.362   5.421  0.0052 -0.5853 -0.0630
17501THY    HM127999   4.935   1.440   5.444  1.7424  0.6333  1.3336
17501THY    HM228000   5.010   1.271   5.481 -0.2775  0.4463  0.5953
17501THY    HM328001   4.987   1.342   5.316 -1.5939 -0.4516  0.7832
17501THY    CA628002   5.167   1.524   5.529  0.5217 -0.4928 -0.7876
17501THY    HA628003   5.080   1.551   5.589  1.9622  0.3058  2.5634
17502THY      O28004   1.070   2.361   5.039 -0.2986 -0.0920 -0.1712
17502THY     HO28005   1.025   2.275   5.037 -0.2069 -3.0136 -0.2557
17502THY    CA128006   0.973   2.446   5.000 -0.4244  0.2885 -0.4190
17502THY    CA228007   0.999   2.567   4.938  0.1132 -0.4692 -1.2586
17502THY    CP128008   1.143   2.620   4.923  0.0989 -0.0634  0.4668
17502THY    HP128009   1.216   2.544   4.954 -1.4172  1.5269 -0.4233
17502THY    CP228010   1.165   2.760   4.984 -0.0106 -0.5160  0.4102
17502THY    HP228011   1.121   2.839   4.922  1.2164 -2.2128 -0.1805
17502THY    HP328012   1.271   2.778   5.007 -0.5853  1.9341  1.0415
17502THY    HP428013   1.120   2.752   5.084  1.3242  0.1742  1.1750
17502THY    CP328014   1.172   2.645   4.776 -0.2210  0.7473 -0.1335
17502THY    HP528015   1.272   2.689   4.765 -0.6564 -1.5761  0.4528
17502THY    HP628016   1.090   2.704   4.732 -2.9954  2.3418 -2.5462
17502THY    HP728017   1.168   2.555   4.714 -1.9293 -1.1562  1.1442
17502THY    CA328018   0.894   2.648   4.905 -0.0013  0.0388 -0.7137
17502THY    HA328019   0.905   2.744   4.855 -3.6686 -1.2872 -0.8459
17502THY    CA428020   0.761   2.615   4.948 -0.1306  0.0986 -0.1287
17502THY    HA428021   0.686   2.689   4.923 -0.3611 -0.7374 -0.6361
17502THY    CA528022   0.731   2.494   5.018 -0.1334  0.4288 -0.4238
17502THY    CM128023   0.592   2.450   5.065 -0.5700 -0.1465  0.5378
17502THY    HM128024   0.565   2.492   5.163 -0.1728 -1.1573  3.3260
17502THY    HM228025   0.598   2.341   5.073  0.5434  2.9778  0.7207
17502THY    HM328026   0.520   2.490   4.993 -0.6140  0.9334  2.5436
17502THY    CA628027   0.844   2.410   5.035  0.1769  0.8375  0.0164
17502THY    HA628028   0.826   2.318   5.089 -0.4259 -1.4653 -1.2976
17503THY      O28029   6.290   0.591   4.668 -0.2347 -0.0702 -0.2368
17503THY     HO28030   6.237   0.517   4.634  0.0070 -0.1306 -0.3833
17503THY    CA128031   6.234   0.707   4.626 -0.0926 -0.7179 -0.0904
17503THY    CA228032   6.301   0.826   4.633 -0.8285 -0.3067  0.3511
17503THY    CP128033   6.433   0.838   4.701  0.1721 -0.6020  0.5269
17503THY    HP128034   6.464   0.743   4.746 -0.7627  0.8732  0.8882
17503THY    CP228035   6.434   0.953   4.805  0.0735 -0.0149 -0.0188
17503THY    HP228036   6.377   0.924   4.895  1.5792  1.1451  0.4781
17503THY    HP328037   6.399   1.055   4.782  1.7782  1.3815  0.9463
17503THY    HP428038   6.537   0.967   4.840 -0.6238  2.1073  0.3334
17503THY    CP328039   6.537   0.871   4.598  0.4998 -0.5349 -0.2573
17503THY    HP528040   6.632   0.898   4.644 -0.6339  0.8828  1.5486
17503THY    HP628041   6.504   0.958   4.539 -3.0750  1.2910 -0.1833
17503THY    HP728042   6.544   0.790   4.524 -2.1426 -1.1613 -0.0020
17503THY    CA328043   6.233   0.940   4.597  0.4433  0.2732  0.9383
17503THY    HA328044   6.284   1.036   4.591  1.1396  0.0801  0.5569
17503THY    CA428045   6.099   0.936   4.557  0.4679  0.1474 -0.7258
17503THY    HA428046   6.040   1.025   4.540 -0.4419 -2.3301 -1.7060
17503THY    CA528047   6.029   0.816   4.556 -0.2496 -0.2667  0.2831
17503THY    CM128048   5.882   0.810   4.517  0.0724  0.0751  0.3725
17503THY    HM128049   5.877   0.858   4.418  2.1013 -0.2923 -0.0929
17503THY    HM228050   5.820   0.864   4.589  1.0522 -0.7779  2.7616
17503THY    HM328051   5.847   0.706   4.515 -0.0777  1.7061  0.3746
17503THY    CA628052   6.105   0.701   4.583 -0.0587 -0.2716  0.3413
17503THY    HA628053   6.061   0.603   4.572  1.1574  1.0454 -0.3897
17504THY      O28054   2.875   6.425   5.512  0.1275 -0.5499  0.2080
17504THY     HO28055   2.943   6.429   5.443  0.7273  0.0549  0.7474
17504THY    CA128056   2.783   6.516   5.498 -0.6556 -0.0067 -0.2584
17504THY    CA228057   2.679   6.530   5.585 -0.3080  0.2560  0.4604
17504THY    CP128058   2.661   6.429   5.693 -0.3012  0.0023 -0.0318
17504THY    HP128059   2.760   6.417   5.739  0.5685 -1.6792  0.4568
17504THY    CP228060   2.617   6.293   5.635  0.0942 -0.1615  0.0236
17504THY    HP228061   2.632   6.207   5.702 -0.7904  0.5693  0.4288
17504THY    HP328062   2.668   6.270   5.541 -1.1469 -0.7589 -0.3560
17504THY    HP428063   2.511   6.285   5.610 -0.3503  1.5815 -0.0907
17504THY    CP328064   2.564   6.465   5.806  0.3821 -0.0741 -0.4057
17504THY    HP528065   2.602   6.548   5.866  3.7295 -0.2285 -1.6576
17504THY    HP628066   2.545   6.381   5.875 -6.3225 -1.5745 -0.6422
17504THY    HP728067   2.459   6.479   5.778 -0.5078  2.1508 -1.9325
17504THY    CA328068   2.586   6.639   5.565  0.0055 -0.0089 -0.0727
17504THY    HA328069   2.495   6.643   5.623  0.6822  1.0422  0.9994
17504THY    CA428070   2.610   6.732   5.464  0.2097  1.1060  0.1799
17504THY    HA428071   2.532   6.807   5.450 -0.0573  1.5593 -0.0040
17504THY    CA528072   2.716   6.725   5.383 -0.4792 -0.1157 -0.3150
17504THY    CM128073   2.740   6.829   5.279 -0.3792  0.3592 -0.2365
17504THY    HM128074   2.649   6.856   5.225 -1.4137  1.0992 -2.0813
17504THY    HM228075   2.805   6.784   5.203  1.9972  1.4262  1.1912
17504THY    HM328076   2.801   6.913   5.315  1.0235 -2.3577  0.0138
17504THY    CA628077   2.810   6.617   5.403  0.6719 -0.0342 -0.2374
17504THY    HA628078   2.898   6.611   5.341 -0.1153 -1.0640 -1.7931
17505THY      O28079   2.494   4.440   3.037  0.2521  0.0749  0.4111
17505THY     HO28080   2.467   4.485   3.119  0.8018  0.9627 -0.8516
17505THY    CA128081   2.573   4.536   2.983 -0.3960  0.2412 -0.2749
17505THY    CA228082   2.603   4.552   2.846 -0.5707 -0.4997  0.1464
17505THY    CP128083   2.537   4.458   2.741 -0.6001  0.4718  0.6530
17505THY    HP128084   2.448   4.406   2.778 -0.4141  0.1259  0.0835
17505THY    CP228085   2.646   4.348   2.701  0.3114  0.1959 -0.4609
17505THY    HP228086   2.732   4.401   2.660 -0.1552  1.2439  1.1982
17505THY    HP328087   2.613   4.277   2.624  0.3540 -1.0084  0.7822
17505THY    HP428088   2.668   4.292   2.793  0.5554  1.4153  1.5385
17505THY    CP328089   2.501   4.541   2.614 -0.6829  1.2990  1.0979
17505THY    HP528090   2.434   4.620   2.650 -1.2571  0.7183  0.8814
17505THY    HP628091   2.442   4.489   2.538 -1.0969  3.0951 -1.1717
17505THY    HP728092   2.590   4.588   2.570  0.3791  2.8633  0.6402
17505THY    CA328093   2.713   4.628   2.809  0.3161  0.2717 -0.6973
17505THY    HA328094   2.747   4.620   2.706  0.1952  0.3027 -1.7060
17505THY    CA428095   2.772   4.720   2.903 -0.8526  0.5394  0.2020
17505THY    HA428096   2.851   4.786   2.867  0.6520  0.4884 -1.5316
17505THY    CA528097   2.726   4.725   3.034  0.7502  0.2620 -0.2069
17505THY    CM128098   2.779   4.819   3.135  0.2939 -0.1135 -0.3744
17505THY    HM128099   2.817   4.778   3.229 -0.6562 -0.6753 -2.6891
17505THY    HM228100   2.710   4.900   3.160  1.7396 -0.0143  0.8797
17505THY    HM328101   2.856   4.885   3.092 -0.8313  2.5315  2.9300
17505THY    CA628102   2.624   4.628   3.074 -0.1312  0.2120 -1.2108
17505THY    HA628103   2.610   4.624   3.181  0.6547  0.3543 -0.4238
17506THY      O28104   1.499   9.426   4.760 -0.4131 -0.5692  0.0505
17506THY     HO28105   1.486   9.515   4.797 -0.5221 -2.6760  0.9627
17506THY    CA128106   1.596   9.360   4.833  0.1340  0.6115 -0.1994
17506THY    CA228107   1.576   9.236   4.886  0.1111  0.3947  0.4320
17506THY    CP128108   1.439   9.165   4.872  0.2319 -0.5283 -0.2949
17506THY    HP128109   1.372   9.208   4.797  0.4904 -1.0109 -0.7245
17506THY    CP228110   1.360   9.180   5.004  0.1824  0.4022  0.4847
17506THY    HP228111   1.278   9.107   5.010 -0.8272 -0.1700  1.5186
17506THY    HP328112   1.317   9.281   4.994  0.1596 -1.7710  0.3055
17506THY    HP428113   1.429   9.172   5.088 -0.8764  1.1448 -1.4533
17506THY    CP328114   1.454   9.017   4.837 -0.3823  0.5325  0.0160
17506THY    HP528115   1.521   8.964   4.906  0.4877  0.7521  1.3599
17506THY    HP628116   1.492   8.999   4.736 -0.5390  0.1247  1.7683
17506THY    HP728117   1.352   8.979   4.851 -0.7212  1.0294  1.0697
17506THY    CA328118   1.681   9.174   4.969  0.6115  0.3386  0.6819
17506THY    HA328119   1.655   9.078   5.012  1.2520 -1.9695 -0.6119
17506THY    CA428120   1.798   9.239   4.987  0.7260 -1.2429 -0.0184
17506THY    HA428121   1.877   9.202   5.052  0.6441  0.2691  2.2319
17506THY    CA528122   1.821   9.358   4.921  0.1072 -0.2240 -0.9348
17506THY    CM128123   1.958   9.420   4.931  0.4310  0.0191 -0.3697
17506THY    HM128124   1.969   9.525   4.903  2.2598 -2.3177 -1.1152
17506THY    HM228125   2.026   9.370   4.862  0.5848 -0.4088  0.4258
17506THY    HM328126   2.005   9.412   5.030 -0.9383  0.6042 -1.8476
17506THY    CA628127   1.718   9.429   4.859  0.4651 -0.0559  0.3152
17506THY    HA628128   1.733   9.522   4.805  0.2315 -2.2237 -0.8327
17507THY      O28129   6.243   9.339   5.894 -0.1235  0.0053 -0.9029
17507THY     HO28130   6.223   9.291   5.812  1.9125 -2.0575  1.4401
17507THY    CA128131   6.311   9.253   5.970 -0.2776 -0.0193  0.5343
17507THY    CA228132   6.319   9.250   6.112 -0.4273  0.2445  0.0677
17507THY    CP128133   6.226   9.342   6.187  0.2923 -0.1984  0.0892
17507THY    HP128134   6.149   9.382   6.120 -0.5970  1.1986  0.8443
17507THY    CP228135   6.298   9.463   6.240 -0.5670 -0.6025 -0.2126
17507THY    HP228136   6.232   9.550   6.245 -0.7068  0.7665 -0.3772
17507THY    HP328137   6.388   9.488   6.182 -1.1019 -0.7326  1.6049
17507THY    HP428138   6.348   9.445   6.336 -1.0834 -0.3019 -0.0535
17507THY    CP328139   6.172   9.284   6.325 -0.2977  0.1678 -0.1381
17507THY    HP528140   6.111   9.362   6.374  0.3001  0.4413  0.1613
17507THY    HP628141   6.245   9.256   6.401 -0.0326 -0.7395 -2.0419
17507THY    HP728142   6.110   9.196   6.307 -0.1494 -0.7713 -0.0634
17507THY    CA328143   6.406   9.160   6.173  0.0831 -0.1918 -0.2678
17507THY    HA328144   6.415   9.147   6.280 -2.1235 -0.2140 -2.7921
17507THY    CA428145   6.495   9.084   6.097  0.2386  0.5901 -0.5835
17507THY    HA428146   6.572   9.027   6.147  1.8224  1.4198  2.1113
17507THY    CA528147   6.498   9.098   5.956  0.6655 -0.6423 -0.9738
17507THY    CM128148   6.594   9.031   5.874  0.6128 -0.0364  0.2202
17507THY    HM128149   6.605   9.071   5.773 -1.2976 -0.8617 -1.1405
17507THY    HM228150   6.564   8.926   5.865  0.0372  0.2650  0.3545
17507THY    HM328151   6.688   9.041   5.929  1.7525 -1.5289 -1.5811
17507THY    CA628152   6.400   9.173   5.890  0.3584 -0.2425 -0.2427
17507THY    HA628153   6.394   9.175   5.782 -1.8447 -0.1984 -1.1118
17508THY      O28154   8.204   4.512   2.719 -0.2421  0.6364 -0.3210
17508THY     HO28155   8.129   4.502   2.658  1.0763 -0.7006 -3.2227
17508THY    CA128156   8.209   4.407   2.801  0.0655 -0.1536 -0.1166
17508THY    CA228157   8.319   4.389   2.885  0.3045 -0.6090  0.2165
17508THY    CP128158   8.423   4.495   2.900  0.4675  0.1099  0.5409
17508THY    HP128159   8.420   4.569   2.819 -0.1017 -1.8767 -1.5605
17508THY    CP228160   8.561   4.432   2.917  0.0521  0.2764 -0.0210
17508THY    HP228161   8.631   4.516   2.910  0.6715  2.4959 -0.2829
17508THY    HP328162   8.587   4.359   2.841 -0.9799  0.9310 -1.1062
17508THY    HP428163   8.580   4.385   3.014 -0.2065  0.4191  0.1622
17508THY    CP328164   8.402   4.582   3.026 -0.0899 -0.5171 -0.0157
17508THY    HP528165   8.304   4.631   3.025  0.2719 -0.7239  0.7179
17508THY    HP628166   8.486   4.653   3.031  0.6604 -1.3089 -0.8137
17508THY    HP728167   8.417   4.522   3.116  1.9773 -1.1575 -0.5592
17508THY    CA328168   8.329   4.280   2.970 -0.4850 -0.2447  0.8549
17508THY    HA328169   8.412   4.273   3.040  0.7542 -1.6505  0.8866
17508THY    CA428170   8.233   4.179   2.962  0.2892  0.3031 -0.5193
17508THY    HA428171   8.250   4.085   3.014  0.2093  0.6719 -0.3327
17508THY    CA528172   8.138   4.188   2.869  0.3631 -0.0495  0.7614
17508THY    CM128173   8.036   4.079   2.863 -0.1530 -0.2292 -0.6669
17508THY    HM128174   8.056   4.005   2.784 -0.7452 -2.0431  1.0152
17508THY    HM228175   7.940   4.130   2.853  1.2179 -1.8826  1.8251
17508THY    HM328176   8.043   4.024   2.958  0.1938  1.6896  2.4422
17508THY    CA628177   8.120   4.298   2.794  0.1499  0.1593 -0.2706
17508THY    HA628178   8.032   4.311   2.732 -1.9312  2.8157 -0.8292
17509THY      O28179   7.913   2.623   7.974 -0.0168 -0.4904  0.8663
17509THY     HO28180   8.000   2.628   7.931  0.0242 -0.5099  0.1360
17509THY    CA128181   7.890   2.488   7.987  0.2499  0.5444 -0.3487
17509THY    CA228182   7.760   2.431   7.982 -0.8009  0.7950 -0.1655
17509THY    CP128183   7.640   2.522   7.981 -0.2308 -0.6836  0.4807
17509THY    HP128184   7.662   2.604   8.050  2.9011  0.2680 -1.0094
17509THY    CP228185   7.508   2.459   8.022  0.7784  0.2223 -0.3429
17509THY    HP228186   7.510   2.421   8.124 -1.3154  0.8071  0.9498
17509THY    HP328187   7.464   2.387   7.952  1.0576  0.1182 -0.4137
17509THY    HP428188   7.438   2.543   8.033 -0.8692  0.5449 -1.7093
17509THY    CP328189   7.633   2.589   7.849  1.0614 -0.7572  0.0722
17509THY    HP528190   7.732   2.616   7.810  0.9947  0.3900  2.0984
17509THY    HP628191   7.565   2.675   7.846 -0.4120 -1.1815 -1.0567
17509THY    HP728192   7.578   2.524   7.779  1.2395  0.2962 -1.2432
17509THY    CA328193   7.742   2.289   7.974  0.1907  0.1023  0.4145
17509THY    HA328194   7.648   2.241   7.953 -0.4222 -0.1947  1.6915
17509THY    CA428195   7.851   2.205   7.968  0.0039 -0.3609 -0.9621
17509THY    HA428196   7.843   2.098   7.951  0.3821 -1.9788 -0.7571
17509THY    CA528197   7.978   2.259   7.973 -0.1575 -0.1216 -0.2997
17509THY    CM128198   8.096   2.172   7.979  0.0389  0.2704 -0.5203
17509THY    HM128199   8.183   2.210   7.923 -0.2314  0.4524  0.3912
17509THY    HM228200   8.071   2.074   7.937 -1.2860  0.9850 -0.4986
17509THY    HM328201   8.129   2.165   8.083  1.0473 -0.0256 -0.4347
17509THY    CA628202   8.000   2.401   7.974  0.0718  0.6801  0.0757
17509THY    HA628203   8.104   2.433   7.969  0.3899 -1.6569 -1.1211
17510THY      O28204   8.006   7.887   2.344 -0.6203 -0.3635 -0.1180
17510THY     HO28205   8.045   7.967   2.305  0.2159 -0.6439 -0.6439
17510THY    CA128206   7.869   7.903   2.342  0.2103 -0.5304  0.0668
17510THY    CA228207   7.773   7.804   2.379  0.0167  0.0125 -0.1968
17510THY    CP128208   7.815   7.664   2.413  0.7138 -0.1475 -0.4103
17510THY    HP128209   7.914   7.655   2.458  0.6861 -0.1910 -0.9222
17510THY    CP228210   7.824   7.577   2.290  0.5027  0.5346  0.1221
17510THY    HP228211   7.898   7.496   2.287  0.4300 -1.4288  0.0867
17510THY    HP328212   7.860   7.641   2.209  0.3459  0.3627 -0.0022
17510THY    HP428213   7.727   7.536   2.258  1.0797 -0.7514 -0.2837
17510THY    CP328214   7.714   7.588   2.510 -0.4480 -0.5074  0.1136
17510THY    HP528215   7.616   7.566   2.466 -1.2514  0.0988  2.2446
17510THY    HP628216   7.701   7.648   2.601  2.7293  0.9592 -1.1372
17510THY    HP728217   7.767   7.496   2.539  2.0303 -2.0739  0.9561
17510THY    CA328218   7.634   7.834   2.373 -0.3810 -0.2302  0.0704
17510THY    HA328219   7.551   7.765   2.387 -0.0335 -0.6028 -0.4344
17510THY    CA428220   7.595   7.962   2.330  0.6926 -0.2656  0.4306
17510THY    HA428221   7.488   7.981   2.336  0.0299 -2.6976 -1.8507
17510THY    CA528222   7.691   8.059   2.294  0.0564 -0.2316  0.2938
17510THY    CM128223   7.652   8.196   2.251  0.2205  0.4437 -0.8416
17510THY    HM128224   7.719   8.246   2.180 -0.8725 -0.6505 -0.8746
17510THY    HM228225   7.640   8.261   2.339  0.9649 -1.4606  2.0658
17510THY    HM328226   7.559   8.199   2.192  0.8736 -0.6607  2.9694
17510THY    CA628227   7.828   8.022   2.292  1.1332 -0.5000 -1.0336
17510THY    HA628228   7.899   8.100   2.269  0.6392 -1.4063 -0.8448
17511THY      O28229   0.544   5.565   2.549  0.3361  0.1289  0.3017
17511THY     HO28230   0.505   5.654   2.554 -0.8745 -1.1199 -0.1313
17511THY    CA128231   0.457   5.476   2.615 -0.5901 -1.0378 -0.9707
17511THY    CA228232   0.495   5.346   2.640 -0.0510  0.1944  0.3612
17511THY    CP128233   0.640   5.295   2.622 -0.1986 -0.5197  0.2362
17511THY    HP128234   0.709   5.366   2.574  0.8454 -0.3018 -0.6139
17511THY    CP228235   0.648   5.179   2.522 -0.3198  0.1024 -0.4241
17511THY    HP228236   0.603   5.086   2.558 -1.0155  0.2670 -0.0318
17511THY    HP328237   0.754   5.157   2.508 -0.1684 -0.2449  0.5013
17511THY    HP428238   0.601   5.207   2.427 -1.4417  1.0183  0.9036
17511THY    CP328239   0.703   5.251   2.759  0.5627  0.1303 -0.8759
17511THY    HP528240   0.633   5.183   2.809 -1.2531 -2.0652 -0.7305
17511THY    HP628241   0.739   5.335   2.820  1.8125  0.4309 -1.6063
17511THY    HP728242   0.787   5.184   2.739  0.0475 -0.5460 -1.3290
17511THY    CA328243   0.398   5.249   2.686 -0.2441  0.0830  0.4239
17511THY    HA328244   0.435   5.156   2.729 -1.6834  1.5345  0.4780
17511THY    CA428245   0.265   5.293   2.707  0.1712  0.7651  0.2265
17511THY    HA428246   0.198   5.221   2.753 -0.2063  0.0744  0.1314
17511THY    CA528247   0.234   5.428   2.687  0.2933  0.5413 -0.4568
17511THY    CM128248   0.094   5.467   2.719 -0.0952 -0.2861  0.3258
17511THY    HM128249   0.017   5.428   2.651 -0.7891 -0.7327  2.3339
17511THY    HM228250   0.080   5.576   2.713 -1.3155 -0.5427  0.1674
17511THY    HM328251   0.056   5.428   2.814  2.3548  0.3680 -0.6485
17511THY    CA628252   0.324   5.521   2.639 -0.9203  0.0127  0.1723
17511THY    HA628253   0.292   5.621   2.613  2.3272 -3.1218  0.6167
17512THY      O28254   8.442   2.896   3.534 -0.0080  0.7853  0.4332
17512THY     HO28255   8.496   2.875   3.456 -0.4129  0.5954  0.0856
17512THY    CA128256   8.389   3.010   3.485  0.6199  0.1696 -0.3420
17512THY    CA228257   8.299   3.083   3.562  0.7756  0.1347  0.3779
17512THY    CP128258   8.254   3.042   3.699 -0.2864  0.1615  0.0675
17512THY    HP128259   8.255   2.933   3.698  0.3721 -0.6437  0.0707
17512THY    CP228260   8.115   3.081   3.733  0.0224 -0.7755 -0.1842
17512THY    HP228261   8.120   3.183   3.773 -1.3816  1.1865 -0.8202
17512THY    HP328262   8.078   3.023   3.818  1.7183  0.8714  1.0360
17512THY    HP428263   8.044   3.072   3.649  0.4594 -1.1893  0.2106
17512THY    CP328264   8.353   3.108   3.800  0.7634 -0.7763  0.3685
17512THY    HP528265   8.460   3.096   3.777  1.7818  3.0222  1.0093
17512THY    HP628266   8.324   3.065   3.897 -2.4995 -1.4898  0.7083
17512THY    HP728267   8.330   3.215   3.796 -1.6447 -2.0312 -0.1365
17512THY    CA328268   8.258   3.204   3.514  0.1788 -0.0262 -0.0487
17512THY    HA328269   8.191   3.276   3.561  1.2086  0.1211  0.8363
17512THY    CA428270   8.305   3.250   3.393  0.5899  0.6645  0.8792
17512THY    HA428271   8.268   3.345   3.354 -0.0085 -0.1916  0.3129
17512THY    CA528272   8.385   3.173   3.310  0.1342  0.0291 -0.2489
17512THY    CM128273   8.420   3.233   3.174 -0.2695  0.3614 -0.5042
17512THY    HM128274   8.326   3.256   3.123 -0.0147  0.0544 -0.1411
17512THY    HM228275   8.481   3.160   3.120 -1.1733 -1.3167 -0.0609
17512THY    HM328276   8.477   3.326   3.183 -2.1447 -0.0000  0.7248
17512THY    CA628277   8.432   3.045   3.357 -0.5852 -0.2741  0.1011
17512THY    HA628278   8.491   2.976   3.298 -0.5294 -0.6586  0.4687
17513THY      O28279   9.103   5.169   4.959  0.2977 -0.3230 -0.1540
17513THY     HO28280   9.021   5.161   4.907  0.7099 -0.8638 -0.9842
17513THY    CA128281   9.145   5.042   4.968  1.0448 -0.3731 -0.0766
17513THY    CA228282   9.271   5.012   5.022  0.3169 -1.2680 -0.4875
17513THY    CP128283   9.337   5.119   5.112  0.9529  0.1872  0.1283
17513THY    HP128284   9.271   5.203   5.137 -0.0689 -0.1470 -0.5634
17513THY    CP228285   9.462   5.171   5.035  0.0350  0.4104  0.2486
17513THY    HP228286   9.509   5.240   5.106  1.1115  1.3192 -1.3436
17513THY    HP328287   9.443   5.227   4.943 -0.6406  1.6142  2.0911
17513THY    HP428288   9.535   5.091   5.017 -0.3831 -0.9260  0.1493
17513THY    CP328289   9.386   5.067   5.251 -0.1919  0.3459  0.1526
17513THY    HP528290   9.443   4.976   5.228 -0.5643 -2.0587  0.4434
17513THY    HP628291   9.295   5.058   5.310  0.1973  0.9614  0.2366
17513THY    HP728292   9.460   5.133   5.297  0.3255  0.1017 -0.2447
17513THY    CA328293   9.323   4.882   5.005 -0.2621 -0.2424  0.2217
17513THY    HA328294   9.423   4.864   5.046  0.2968 -1.0300  1.4567
17513THY    CA428295   9.251   4.783   4.930  0.1752  0.1806 -0.0392
17513THY    HA428296   9.296   4.685   4.917 -0.4047  1.3439 -0.4726
17513THY    CA528297   9.117   4.809   4.895 -0.3702  0.6162 -0.2754
17513THY    CM128298   9.041   4.704   4.813 -0.0999  0.2170 -0.5625
17513THY    HM128299   8.933   4.707   4.831 -0.1821 -0.2668 -0.6357
17513THY    HM228300   9.079   4.605   4.843  1.2128 -1.4217 -0.6022
17513THY    HM328301   9.067   4.720   4.708  0.8502  0.6796  1.2427
17513THY    CA628302   9.068   4.943   4.905 -0.2425  0.1122  0.2652
17513THY    HA628303   8.979   4.962   4.847  0.0807  0.1253  1.9988
17514THY      O28304   1.892   2.338   6.930 -0.0449  0.0194 -0.0219
17514THY     HO28305   1.867   2.370   6.842  0.3213 -0.3588 -0.7565
17514THY    CA128306   1.891   2.203   6.918  0.2542 -0.0346  0.1447
17514THY    CA228307   1.927   2.114   7.024  0.2582  0.1360 -0.8537
17514THY    CP128308   1.960   2.169   7.167  0.2541 -0.3559 -0.3705
17514THY    HP128309   1.942   2.277   7.172 -2.9088 -0.3451 -0.8116
17514THY    CP228310   2.106   2.147   7.201  0.5700 -0.0719  0.3703
17514THY    HP228311   2.180   2.162   7.121  1.1579  0.7543  2.2286
17514THY    HP328312   2.127   2.042   7.221 -1.4418 -1.2695 -0.3058
17514THY    HP428313   2.135   2.222   7.276  0.4424  0.1659  0.1818
17514THY    CP328314   1.871   2.120   7.273 -0.5237 -0.1153  0.5653
17514THY    HP528315   1.901   2.015   7.286  1.2687 -1.6357  0.8399
17514THY    HP628316   1.767   2.138   7.245 -0.9143 -0.0941 -1.3783
17514THY    HP728317   1.903   2.178   7.360 -0.6516 -0.1774  0.7275
17514THY    CA328318   1.929   1.978   6.998  0.5140  0.2067 -0.1915
17514THY    HA328319   1.957   1.915   7.082  2.7543  1.4280  2.2568
17514THY    CA428320   1.873   1.928   6.874 -0.8819  0.0239  0.7406
17514THY    HA428321   1.864   1.821   6.858  1.3353  0.6236  0.4339
17514THY    CA528322   1.833   2.020   6.767  0.1507 -0.6270  0.6061
17514THY    CM128323   1.782   1.973   6.633  0.2532 -0.7604 -0.5603
17514THY    HM128324   1.693   1.909   6.645  1.0384  0.2431 -1.5048
17514THY    HM228325   1.848   1.920   6.563 -0.9277 -3.7475  1.6358
17514THY    HM328326   1.736   2.056   6.579  0.3586  1.5361  1.0680
17514THY    CA628327   1.850   2.157   6.794 -0.3020  0.1769 -0.3661
17514THY    HA628328   1.823   2.229   6.717 -1.2903  0.3863 -0.5072
17515THY      O28329   4.914   6.331   2.042 -0.1383  0.0951 -0.4932
17515THY     HO28330   4.981   6.262   2.060  1.7817  1.4458  1.5981
17515THY    CA128331   4.789   6.284   2.066  0.3636 -0.0060 -0.2340
17515THY    CA228332   4.688   6.382   2.088 -1.0232  0.2939  0.0330
17515THY    CP128333   4.716   6.531   2.092  0.1819 -0.6776  0.0822
17515THY    HP128334   4.816   6.565   2.066  1.2109  1.8257 -0.8164
17515THY    CP228335   4.702   6.574   2.236 -0.1817  0.2078 -0.3969
17515THY    HP228336   4.789   6.533   2.289  0.2276 -0.8283 -0.9081
17515THY    HP328337   4.605   6.544   2.276 -0.6563  1.2891  2.2887
17515THY    HP428338   4.705   6.683   2.251  0.9995 -0.1677 -0.3515
17515THY    CP328339   4.624   6.617   2.002  0.2798 -0.5139 -0.5565
17515THY    HP528340   4.638   6.724   2.016 -0.3883 -2.0887 -0.2253
17515THY    HP628341   4.516   6.606   2.021  0.3377  1.7530  1.8373
17515THY    HP728342   4.643   6.605   1.894 -1.1797 -0.7910 -0.6265
17515THY    CA328343   4.558   6.339   2.117  0.1567  0.1765  0.2410
17515THY    HA328344   4.474   6.407   2.129 -1.0615 -0.6166 -1.0569
17515THY    CA428345   4.531   6.202   2.116 -0.0115  0.0293 -0.2354
17515THY    HA428346   4.429   6.168   2.134 -0.4958  0.1996  1.2477
17515THY    CA528347   4.633   6.110   2.104  0.6959  0.5546  0.0911
17515THY    CM128348   4.602   5.963   2.112 -0.5023 -0.9438  0.4644
17515THY    HM128349   4.527   5.936   2.037 -1.5169  0.1615  0.1158
17515THY    HM228350   4.576   5.938   2.216  0.8286 -0.8919 -0.8026
17515THY    HM328351   4.690   5.901   2.095 -1.0638  0.8222 -0.8950
17515THY    CA628352   4.762   6.153   2.072  0.0064  0.5774  0.2652
17515THY    HA628353   4.842   6.080   2.079 -0.7333  3.1584 -0.4150
17516THY      O28354   0.869   0.447   7.469 -0.6355 -0.1881 -0.1800
17516THY     HO28355   0.930   0.472   7.398 -0.1895  0.3494  0.2795
17516THY    CA128356   0.816   0.563   7.504  0.6878 -0.5536  0.5419
17516THY    CA228357   0.742   0.578   7.624 -1.2928 -0.3832 -0.2193
17516THY    CP128358   0.748   0.462   7.732 -0.3529 -0.4402 -0.5356
17516THY    HP128359   0.829   0.392   7.711  0.1991  3.5609 -1.3008
17516THY    CP228360   0.620   0.391   7.764 -0.5372  0.0459 -0.3234
17516THY    HP228361   0.569   0.367   7.670  0.6015 -0.6933  0.0807
17516THY    HP328362   0.551   0.459   7.814  1.1491  0.3389  1.2278
17516THY    HP428363   0.635   0.300   7.823  0.9005  1.1752  0.6101
17516THY    CP328364   0.797   0.540   7.859 -0.0132  0.4939  0.0839
17516THY    HP528365   0.724   0.619   7.877 -2.3477  1.1771 -2.0887
17516THY    HP628366   0.885   0.601   7.836 -0.5380 -0.8511  0.3748
17516THY    HP728367   0.805   0.475   7.947 -2.0181 -0.5908 -1.7559
17516THY    CA328368   0.677   0.702   7.646 -0.0269  0.2631  0.0881
17516THY    HA328369   0.617   0.727   7.733  0.0806  0.2370  0.4308
17516THY    CA428370   0.683   0.798   7.549  0.1328 -0.6287  0.6389
17516THY    HA428371   0.625   0.889   7.558 -1.6821 -0.2268 -0.5032
17516THY    CA528372   0.760   0.777   7.437  0.3868  0.1468  0.4265
17516THY    CM128373   0.766   0.882   7.343  0.2198  0.4385  0.1241
17516THY    HM128374   0.860   0.898   7.290 -0.5237 -0.2858  2.4521
17516THY    HM228375   0.729   0.974   7.388 -0.5565 -1.6784  0.9225
17516THY    HM328376   0.694   0.856   7.264  0.4876 -0.1966  1.2539
17516THY    CA628377   0.824   0.658   7.411 -0.2321 -0.8491  0.2330
17516THY    HA628378   0.866   0.641   7.313  0.5189 -0.5354  0.2478
17517THY      O28379   5.128   4.199   6.270  0.1812 -0.1612  0.1678
17517THY     HO28380   5.142   4.220   6.176 -0.1208 -0.1084  0.6032
17517THY    CA128381   4.992   4.177   6.282 -0.6357 -0.4387  0.5848
17517THY    CA228382   4.938   4.099   6.388  0.2313  0.4190 -0.5779
17517THY    CP128383   5.034   4.054   6.491 -0.9565  0.2843  0.7659
17517THY    HP128384   5.126   4.114   6.491  0.5568 -1.3736 -1.4019
17517THY    CP228385   5.085   3.913   6.450  0.7623  0.6285  0.3166
17517THY    HP228386   5.167   3.881   6.515  0.0106  0.6407 -1.7911
17517THY    HP328387   5.131   3.924   6.351  1.3191  0.8776  0.2520
17517THY    HP428388   5.008   3.835   6.444  0.1748  2.1818  0.7426
17517THY    CP328389   4.985   4.058   6.633  0.5611  0.0930  0.4692
17517THY    HP528390   4.953   4.159   6.659 -4.3568 -1.0144 -0.5570
17517THY    HP628391   5.058   4.032   6.711  0.8402  0.1450  1.3931
17517THY    HP728392   4.897   3.994   6.644  1.1740 -0.3860 -0.4832
17517THY    CA328393   4.802   4.063   6.390  0.0583  0.6436 -0.2331
17517THY    HA328394   4.756   3.996   6.462 -1.2150  0.3828  0.3233
17517THY    CA428395   4.716   4.123   6.295 -0.0838 -0.0195  0.0002
17517THY    HA428396   4.610   4.102   6.288  0.0755 -1.6979 -0.3760
17517THY    CA528397   4.769   4.210   6.195 -0.0567  0.0961 -0.1026
17517THY    CM128398   4.672   4.263   6.095  0.4572 -0.2003  0.5892
17517THY    HM128399   4.624   4.174   6.053  0.9913 -1.9048  1.0661
17517THY    HM228400   4.714   4.319   6.010  0.3897  0.7835  2.1722
17517THY    HM328401   4.599   4.331   6.140  0.1743 -0.3804  0.4049
17517THY    CA628402   4.906   4.229   6.184  0.1399 -0.3034 -0.3298
17517THY    HA628403   4.941   4.280   6.095 -0.1864 -0.7468 -0.8670
17518THY      O28404   2.749   9.147   2.777  0.7110  0.7590  0.2932
17518THY     HO28405   2.832   9.140   2.827  1.7121 -0.5444  1.9307
17518THY    CA128406   2.763   9.061   2.667 -0.3306 -0.1772 -0.0143
17518THY    CA228407   2.659   9.007   2.591 -0.6387  0.1432  0.3010
17518THY    CP128408   2.518   9.029   2.635  0.2578  0.2338  0.1042
17518THY    HP128409   2.524   9.087   2.728  2.4776  0.3476 -0.2213
17518THY    CP228410   2.449   8.896   2.665  0.4311 -0.3100  0.1552
17518THY    HP228411   2.415   8.833   2.582 -1.0528 -0.0456  0.5579
17518THY    HP328412   2.365   8.907   2.736 -0.0269  0.3749 -5.0640
17518THY    HP428413   2.518   8.831   2.721  0.0412  0.1465  0.1246
17518THY    CP328414   2.436   9.113   2.533  1.3226  0.4633 -0.2150
17518THY    HP528415   2.450   9.086   2.427  1.2045  0.4868 -0.3714
17518THY    HP628416   2.470   9.215   2.551 -0.4736  2.1562  0.1459
17518THY    HP728417   2.330   9.117   2.560  1.2099  0.9414 -3.2808
17518THY    CA328418   2.687   8.918   2.481 -0.0719 -1.1506 -0.1319
17518THY    HA328419   2.604   8.879   2.423  0.3737 -0.3556 -2.4253
17518THY    CA428420   2.822   8.893   2.453 -0.3542  0.4249  0.2473
17518THY    HA428421   2.844   8.828   2.368 -1.7343 -1.5140  2.1603
17518THY    CA528422   2.930   8.942   2.535  0.0794 -1.2276  0.4258
17518THY    CM128423   3.068   8.902   2.519 -0.3714  0.0331 -0.0753
17518THY    HM128424   3.127   8.970   2.457 -0.0831  0.6731  0.2687
17518THY    HM228425   3.075   8.807   2.466 -2.0280  0.9042 -0.7334
17518THY    HM328426   3.111   8.885   2.619 -2.7122  1.0798 -0.3135
17518THY    CA628427   2.892   9.030   2.639 -0.2965 -0.2004 -0.1768
17518THY    HA628428   2.972   9.071   2.700 -1.0347  0.2151  0.6742
17519THY      O28429   6.155   1.882   4.674 -0.1229  0.1940  0.1504
17519THY     HO28430   6.210   1.803   4.688 -0.5662  0.6882 -0.0810
17519THY    CA128431   6.039   1.853   4.734  0.6229  0.4733  0.0969
17519THY    CA228432   5.922   1.918   4.683 -0.0881  0.2041 -0.0665
17519THY    CP128433   5.924   2.026   4.570  0.2253 -0.0567 -0.5764
17519THY    HP128434   6.007   2.003   4.503  1.3676  1.7366 -1.9896
17519THY    CP228435   5.930   2.169   4.625  0.1445 -0.2151 -0.1159
17519THY    HP228436   6.021   2.180   4.686 -0.6553  1.0553 -0.3945
17519THY    HP328437   5.845   2.191   4.691 -0.3124 -0.7353 -0.3158
17519THY    HP428438   5.916   2.242   4.544 -0.1891  0.9687  1.1758
17519THY    CP328439   5.796   2.012   4.481 -0.1270 -0.3622 -0.2163
17519THY    HP528440   5.820   2.059   4.385  0.1536 -0.7873 -1.2058
17519THY    HP628441   5.718   2.061   4.541 -1.9848  0.6812 -4.0737
17519THY    HP728442   5.776   1.908   4.454  3.0733  0.9230 -1.2961
17519THY    CA328443   5.804   1.881   4.748  0.1018 -0.4441  0.0565
17519THY    HA328444   5.704   1.913   4.718 -1.7045  1.7418 -2.9339
17519THY    CA428445   5.800   1.786   4.855 -0.4691 -0.1179  0.3953
17519THY    HA428446   5.712   1.758   4.912  1.3095  2.7562  0.2372
17519THY    CA528447   5.911   1.710   4.883 -0.1109  0.3295 -0.4114
17519THY    CM128448   5.906   1.599   4.985 -0.7661 -0.0069  0.1059
17519THY    HM128449   6.004   1.559   5.012  1.1165 -3.3279  2.0510
17519THY    HM228450   5.851   1.511   4.950 -1.4490  0.4415  0.3410
17519THY    HM328451   5.839   1.624   5.069 -0.7700 -0.0537  0.2545
17519THY    CA628452   6.032   1.748   4.829 -0.8231  0.2876 -0.6336
17519THY    HA628453   6.125   1.701   4.857 -0.0317 -0.1038  0.6347
17520THY      O28454   4.111   4.459   5.491 -0.0067  0.1681 -0.3504
17520THY     HO28455   4.161   4.541   5.475 -0.9704  0.1634  0.2484
17520THY    CA128456   4.028   4.489   5.595  0.5464  0.3808  0.3869
17520THY    CA228457   3.968   4.390   5.677  0.3669 -0.2058 -0.6646
17520THY    CP128458   3.985   4.239   5.649 -0.4427 -0.8190  0.2460
17520THY    HP128459   4.053   4.212   5.567 -1.9243 -1.3771 -2.0745
17520THY    CP228460   3.844   4.197   5.619 -0.1160 -0.4681 -0.6009
17520THY    HP228461   3.845   4.089   5.601 -1.3443 -2.8988 -0.2779
17520THY    HP328462   3.829   4.241   5.520 -1.1200  0.7653  2.0215
17520THY    HP428463   3.766   4.233   5.687  0.7754 -0.8435  2.2980
17520THY    CP328464   4.033   4.176   5.772 -0.2414 -1.0925  0.1659
17520THY    HP528465   4.066   4.071   5.768  0.3646  1.5344  0.1870
17520THY    HP628466   3.972   4.187   5.862  1.4871  0.0489  0.7444
17520THY    HP728467   4.117   4.233   5.812 -1.1979  2.0290 -0.4137
17520THY    CA328468   3.885   4.446   5.781 -0.5593  0.0224 -0.2140
17520THY    HA328469   3.842   4.378   5.854  0.3787 -0.3047 -1.1922
17520THY    CA428470   3.863   4.577   5.795  1.0983 -0.7791 -0.9843
17520THY    HA428471   3.802   4.617   5.876  0.6581 -1.0462 -1.1102
17520THY    CA528472   3.912   4.671   5.705 -0.3528  0.1287  0.0398
17520THY    CM128473   3.887   4.816   5.705 -0.5622 -0.0258 -0.3595
17520THY    HM128474   3.974   4.847   5.763 -0.1439 -1.3006  0.9722
17520THY    HM228475   3.791   4.833   5.756 -1.5700 -2.0810  0.5296
17520THY    HM328476   3.887   4.865   5.607  0.2299  0.3942  0.5166
17520THY    CA628477   3.999   4.626   5.609  0.8360  0.0590  0.2235
17520THY    HA628478   4.041   4.694   5.535 -0.0377 -0.0202  0.6939
17521THY      O28479   7.758   8.343   4.213 -0.6616  0.3812 -0.0019
17521THY     HO28480   7.815   8.411   4.174  1.0043  1.6848 -0.5862
17521THY    CA128481   7.782   8.334   4.347  0.0556 -0.8112 -0.2080
17521THY    CA228482   7.688   8.285   4.437  0.1420  0.2445 -0.2908
17521THY    CP128483   7.558   8.224   4.374 -0.3128 -0.0276 -0.0746
17521THY    HP128484   7.575   8.194   4.270  1.6705  0.0888  0.4981
17521THY    CP228485   7.440   8.314   4.393 -0.4666 -0.2139 -0.7282
17521THY    HP228486   7.465   8.411   4.348  2.2913  1.7480 -0.4029
17521THY    HP328487   7.418   8.325   4.500  1.0357  0.1272 -0.7859
17521THY    HP428488   7.353   8.275   4.340 -1.9134  1.4876  0.0164
17521THY    CP328489   7.535   8.090   4.437  0.1355 -0.2415  0.2675
17521THY    HP528490   7.615   8.019   4.412  0.5227 -2.2521  1.3472
17521THY    HP628491   7.437   8.046   4.414  0.4589 -2.6507  0.6708
17521THY    HP728492   7.542   8.102   4.546  1.2614 -0.4648  1.9475
17521THY    CA328493   7.704   8.311   4.574 -0.3208 -0.0238 -0.5274
17521THY    HA328494   7.630   8.280   4.648  2.0339  1.9943 -1.6922
17521THY    CA428495   7.818   8.379   4.626 -0.1877  0.5656 -0.7210
17521THY    HA428496   7.841   8.388   4.731  0.3597  0.3684  0.3545
17521THY    CA528497   7.914   8.419   4.539 -0.5698  0.3660 -0.5294
17521THY    CM128498   8.042   8.474   4.598 -0.1632 -0.4098 -0.0895
17521THY    HM128499   8.046   8.575   4.639  2.4193  0.7201 -0.5605
17521THY    HM228500   8.122   8.465   4.524  1.1124  0.7436  1.1555
17521THY    HM328501   8.073   8.418   4.688 -1.7677  0.4387  0.3193
17521THY    CA628502   7.899   8.400   4.399  0.1255 -0.0504 -0.4407
17521THY    HA628503   7.976   8.440   4.335  1.3045  0.3660 -1.9222
17522THY      O28504   8.473   8.255   5.978  1.0793  0.6672  0.1188
17522THY     HO28505   8.415   8.329   5.953 -1.7701  0.8625 -1.8667
17522THY    CA128506   8.596   8.267   5.919 -0.4337 -0.5684  0.4171
17522THY    CA228507   8.679   8.153   5.917 -0.5085  0.6033 -0.4430
17522THY    CP128508   8.645   8.029   5.990  0.5951  0.1027 -0.6607
17522THY    HP128509   8.597   8.060   6.083 -0.7807 -0.4478 -1.0778
17522THY    CP228510   8.758   7.951   6.063  0.5448  0.0292 -0.4856
17522THY    HP228511   8.719   7.874   6.130 -0.4556 -0.3445 -0.3079
17522THY    HP328512   8.817   8.023   6.121 -1.7870  2.2297 -0.2083
17522THY    HP428513   8.821   7.896   5.991  2.9363  1.6790 -0.0796
17522THY    CP328514   8.566   7.931   5.905  0.1245 -0.3316  0.7112
17522THY    HP528515   8.478   7.980   5.861  0.0437  0.4145  1.2439
17522THY    HP628516   8.526   7.842   5.955  0.1038 -1.6706 -0.0510
17522THY    HP728517   8.642   7.906   5.830  2.3097  1.3784  1.9134
17522THY    CA328518   8.809   8.165   5.843  0.2799 -0.7268  0.2236
17522THY    HA328519   8.872   8.077   5.833  0.4794  1.3046  0.0944
17522THY    CA428520   8.849   8.290   5.795 -0.1051 -0.3323  0.5287
17522THY    HA428521   8.945   8.293   5.745  0.7947  1.3162  0.1710
17522THY    CA528522   8.759   8.395   5.790 -0.1012 -0.2858 -0.1353
17522THY    CM128523   8.792   8.529   5.722  0.1896 -0.1741  0.5642
17522THY    HM128524   8.899   8.543   5.705  0.7543  1.9778 -0.6678
17522THY    HM228525   8.765   8.605   5.796 -0.4518  1.3630 -1.0886
17522THY    HM328526   8.746   8.526   5.622 -0.3802  0.1140 -0.7862
17522THY    CA628527   8.630   8.384   5.858  0.2477  0.5302 -0.0017
17522THY    HA628528   8.556   8.462   5.862 -0.7418  1.0084 -0.9400
17523THY      O28529   1.727   0.416   5.033 -0.1524  0.1300  0.2757
17523THY     HO28530   1.705   0.466   4.953  0.9625  0.0985  0.7590
17523THY    CA128531   1.611   0.402   5.104  0.0900 -0.6085 -0.2218
17523THY    CA228532   1.608   0.305   5.212  1.1823 -0.1469 -0.0997
17523THY    CP128533   1.732   0.227   5.247 -0.5008 -0.4379 -0.2647
17523THY    HP128534   1.800   0.226   5.162  0.1010 -0.0433  1.7905
17523THY    CP228535   1.696   0.070   5.266  0.4072 -0.0652 -0.5924
17523THY    HP228536   1.624   0.035   5.192 -1.3399  1.6040 -0.6799
17523THY    HP328537   1.661   0.054   5.369  2.2930  0.4944 -1.4839
17523THY    HP428538   1.792   0.017   5.262  0.5973  0.9188 -0.3512
17523THY    CP328539   1.801   0.276   5.376 -0.3561  0.1973  0.1103
17523THY    HP528540   1.721   0.289   5.450 -1.6663 -1.3497  1.2022
17523THY    HP628541   1.858   0.367   5.355  1.9812  1.1958 -1.0415
17523THY    HP728542   1.875   0.204   5.414  0.0888 -2.2874 -0.8574
17523THY    CA328543   1.489   0.282   5.284  0.5074 -0.0700 -1.0454
17523THY    HA328544   1.485   0.213   5.367 -2.3259  0.1055 -0.7995
17523THY    CA428545   1.373   0.356   5.243 -0.5915 -0.3961  0.0292
17523THY    HA428546   1.281   0.340   5.297 -0.7870 -0.6646  0.2585
17523THY    CA528547   1.378   0.454   5.137 -0.2068 -0.5486 -0.2087
17523THY    CM128548   1.257   0.534   5.112  0.5911  0.2959 -0.5576
17523THY    HM128549   1.269   0.604   5.028 -0.7686 -0.8655 -1.6671
17523THY    HM228550   1.224   0.586   5.202  1.5318  0.0187  0.5655
17523THY    HM328551   1.179   0.460   5.092  1.4809 -0.5827 -1.3064
17523THY    CA628552   1.495   0.474   5.071 -0.4171 -0.2601 -0.1724
17523THY    HA628553   1.504   0.546   4.990  1.2068  0.2336  0.2267
17524THY      O28554   1.361   4.337   2.318 -0.4898  0.0685  0.0659
17524THY     HO28555   1.434   4.276   2.338 -0.6800 -1.0574 -0.5765
17524THY    CA128556   1.323   4.309   2.190 -0.0387  0.5754 -0.2387
17524THY    CA228557   1.257   4.410   2.122  0.0653  0.4422  0.0183
17524THY    CP128558   1.237   4.552   2.181 -0.3447  0.2746 -0.1585
17524THY    HP128559   1.266   4.561   2.287  2.4353 -0.4964  1.0004
17524THY    CP228560   1.101   4.605   2.158  0.5537  0.6667 -0.8290
17524THY    HP228561   1.029   4.526   2.183 -0.2208  2.1101  0.2871
17524THY    HP328562   1.096   4.629   2.051  0.3045  0.5887 -1.2140
17524THY    HP428563   1.071   4.683   2.229  0.1054 -0.9039  0.4821
17524THY    CP328564   1.340   4.643   2.107  0.6275  0.1996 -0.0590
17524THY    HP528565   1.443   4.621   2.139  0.3368 -0.3568 -2.5224
17524THY    HP628566   1.310   4.747   2.128  1.3088  0.3799  0.1065
17524THY    HP728567   1.318   4.637   2.000 -0.8238  0.5557 -2.3779
17524THY    CA328568   1.219   4.380   1.983  0.2086 -0.2562 -0.6892
17524THY    HA328569   1.183   4.459   1.916  0.6897 -0.3297 -0.5329
17524THY    CA428570   1.237   4.244   1.932 -1.2308  0.2027 -0.0339
17524THY    HA428571   1.227   4.230   1.825  1.8198 -0.2286  0.4131
17524THY    CA528572   1.300   4.153   2.017 -0.1112 -0.3200  0.3254
17524THY    CM128573   1.334   4.019   1.969  0.1398 -0.9082  0.8849
17524THY    HM128574   1.332   3.943   2.047  0.8986 -1.7881 -0.0693
17524THY    HM228575   1.438   4.023   1.934  0.0517 -1.4719 -0.8564
17524THY    HM328576   1.262   3.990   1.892 -0.0271 -0.3559 -0.2002
17524THY    CA628577   1.337   4.183   2.149  0.6331  0.2481 -0.4821
17524THY    HA628578   1.376   4.109   2.218 -1.7097  1.8646 -0.3155
17525THY      O28579   1.675   8.378   4.185  0.5704  1.2365  0.1558
17525THY     HO28580   1.733   8.301   4.195 -0.4842  0.7179 -0.7266
17525THY    CA128581   1.572   8.326   4.112  0.1278  0.2399 -0.4667
17525THY    CA228582   1.443   8.362   4.135 -0.4982  0.6968 -0.1343
17525THY    CP128583   1.399   8.470   4.232 -0.1631  0.7046  1.0764
17525THY    HP128584   1.481   8.498   4.300  0.0147  0.6181  0.7656
17525THY    CP228585   1.293   8.428   4.327 -0.3935  0.2610 -0.4827
17525THY    HP228586   1.206   8.434   4.261 -0.4338  0.3857  0.4513
17525THY    HP328587   1.285   8.499   4.411  0.9876 -0.5287  0.6608
17525THY    HP428588   1.316   8.330   4.369 -1.7236 -1.9797 -1.8380
17525THY    CP328589   1.358   8.597   4.159  0.1823 -0.3921 -0.4398
17525THY    HP528590   1.284   8.578   4.081  1.7167 -1.9200 -0.3673
17525THY    HP628591   1.439   8.638   4.097  0.2795 -1.0324 -1.5659
17525THY    HP728592   1.320   8.668   4.234  0.8770  1.6345 -2.1127
17525THY    CA328593   1.339   8.305   4.060  0.2864  0.2585  0.3288
17525THY    HA328594   1.234   8.331   4.074 -0.0316 -1.4552  0.0782
17525THY    CA428595   1.369   8.208   3.963  0.8535  0.2213 -0.3128
17525THY    HA428596   1.292   8.157   3.905  0.9180  1.7295 -2.2294
17525THY    CA528597   1.498   8.173   3.940 -0.0567  0.0684  0.8402
17525THY    CM128598   1.529   8.089   3.816 -1.0415 -0.0624 -0.1402
17525THY    HM128599   1.468   8.099   3.725  2.4791 -2.5512  0.6672
17525THY    HM228600   1.533   7.985   3.851  1.3842 -0.2964 -0.1872
17525THY    HM328601   1.631   8.117   3.786 -1.7460 -0.7662  1.7871
17525THY    CA628602   1.599   8.232   4.015 -0.0012 -0.0569 -0.1739
17525THY    HA628603   1.703   8.211   3.990  0.1347 -0.5057  0.9758
17526THY      O28604   1.634   5.202   2.671 -0.0756 -0.6036 -0.0964
17526THY     HO28605   1.645   5.256   2.590  1.9733  1.7104  3.3638
17526THY    CA128606   1.759   5.209   2.729  0.8332  0.2294 -0.1084
17526THY    CA228607   1.779   5.243   2.861  0.7653 -0.4068 -0.6347
17526THY    CP128608   1.655   5.283   2.947 -0.2571  0.5543  0.4339
17526THY    HP128609   1.586   5.344   2.887 -1.7948  0.4626 -1.3191
17526THY    CP228610   1.687   5.375   3.057  0.2105 -0.6346 -0.7949
17526THY    HP228611   1.592   5.412   3.097  0.3735  2.0024 -2.8869
17526THY    HP328612   1.744   5.461   3.021  0.7646  0.0437 -0.8627
17526THY    HP428613   1.739   5.324   3.140 -1.5588  0.7288 -0.4691
17526THY    CP328614   1.582   5.157   2.998  0.0383  0.4607 -0.4594
17526THY    HP528615   1.509   5.181   3.076  0.2728  1.0967 -1.7506
17526THY    HP628616   1.644   5.088   3.056 -1.5077  1.8976 -0.7118
17526THY    HP728617   1.532   5.096   2.922 -1.0408  1.3740 -0.7365
17526THY    CA328618   1.908   5.246   2.908  0.1828  0.3577 -0.6705
17526THY    HA328619   1.928   5.275   3.011  0.1235  0.1796  0.0162
17526THY    CA428620   2.017   5.226   2.822  0.4049  0.4039  0.2300
17526THY    HA428621   2.119   5.234   2.858  0.3752  1.5568 -3.0671
17526THY    CA528622   1.987   5.193   2.687  0.0824 -0.0665 -0.2380
17526THY    CM128623   2.112   5.160   2.602  0.9743  0.1221  0.1316
17526THY    HM128624   2.202   5.183   2.660  1.2207 -0.1186 -0.2144
17526THY    HM228625   2.107   5.217   2.508  0.2683  0.1481  0.1200
17526THY    HM328626   2.120   5.053   2.583  0.5515  0.6524  0.0054
17526THY    CA628627   1.857   5.177   2.642  0.1302 -0.1722 -0.1398
17526THY    HA628628   1.833   5.150   2.540  0.5791  0.4767 -3.3663
17527THY      O28629   4.909   2.157   7.450  0.5100 -0.5643 -0.8342
17527THY     HO28630   4.907   2.242   7.497  2.1346 -1.0865 -0.4737
17527THY    CA128631   5.038   2.139   7.419  0.3055 -0.2435 -0.6139
17527THY    CA228632   5.093   2.030   7.349  0.2390  0.1101 -0.2949
17527THY    CP128633   5.014   1.915   7.290 -0.2560 -0.1289 -0.4100
17527THY    HP128634   4.909   1.932   7.314 -0.6503 -2.7598  1.4660
17527THY    CP228635   5.057   1.779   7.341 -0.5070 -0.5018  0.4694
17527THY    HP228636   4.984   1.704   7.310  1.5945 -1.1352 -1.4347
17527THY    HP328637   5.049   1.769   7.450 -3.8356 -0.7729 -1.1485
17527THY    HP428638   5.154   1.743   7.306  0.7271  4.1412 -1.3848
17527THY    CP328639   5.030   1.916   7.136  0.3224 -0.0766  0.4325
17527THY    HP528640   4.981   1.830   7.088 -0.4789  2.8053 -0.8394
17527THY    HP628641   5.137   1.908   7.118  0.4077 -0.2510  1.7014
17527THY    HP728642   4.984   2.011   7.105 -0.3804 -0.7249 -0.1049
17527THY    CA328643   5.234   2.024   7.334 -0.4966  0.2257 -0.4611
17527THY    HA328644   5.285   1.946   7.279 -0.6291 -0.9721  0.2758
17527THY    CA428645   5.310   2.133   7.383 -0.3325  0.3584  0.6168
17527THY    HA428646   5.418   2.125   7.374 -0.3322 -0.3190  1.3677
17527THY    CA528647   5.249   2.240   7.447 -0.0131 -0.2465  0.1426
17527THY    CM128648   5.321   2.349   7.516 -1.0487  0.5378  0.1949
17527THY    HM128649   5.424   2.360   7.479 -1.0078  0.8639  0.9191
17527THY    HM228650   5.306   2.320   7.621 -2.0449 -0.2440 -2.4383
17527THY    HM328651   5.282   2.446   7.485  1.2309 -0.3700  0.8916
17527THY    CA628652   5.118   2.241   7.474  0.4443 -0.0492  0.0294
17527THY    HA628653   5.060   2.313   7.532  0.2255 -1.2940  0.8836
17528THY      O28654   2.145   6.706   4.975  0.0597 -0.0410 -0.1480
17528THY     HO28655   2.095   6.650   5.036 -1.8644  0.4696  1.9730
17528THY    CA128656   2.236   6.780   5.044  0.8341 -0.7152  0.0097
17528THY    CA228657   2.354   6.817   4.982  0.1895  0.2863 -1.0054
17528THY    CP128658   2.387   6.763   4.834  0.2603 -0.8441  0.1997
17528THY    HP128659   2.310   6.701   4.787  1.8447 -3.7061  0.2133
17528THY    CP228660   2.513   6.673   4.815  0.1151  0.2128 -0.7723
17528THY    HP228661   2.524   6.647   4.709 -1.2040  0.2387 -1.5294
17528THY    HP328662   2.501   6.572   4.856  2.9750  0.5183 -1.0616
17528THY    HP428663   2.598   6.726   4.858 -0.2509  0.4753 -0.3920
17528THY    CP328664   2.395   6.889   4.744  0.2193  0.0686 -0.4714
17528THY    HP528665   2.323   6.963   4.782  1.3555  0.1163  0.6316
17528THY    HP628666   2.368   6.861   4.642 -0.7167  0.3660 -0.7087
17528THY    HP728667   2.495   6.932   4.754 -0.0883 -3.5353  1.4318
17528THY    CA328668   2.437   6.912   5.050 -0.4791 -0.0340  0.2156
17528THY    HA328669   2.537   6.938   5.014 -1.1389 -0.3309  2.5582
17528THY    CA428670   2.403   6.951   5.178  0.5204 -0.0874  0.6268
17528THY    HA428671   2.462   7.014   5.243 -0.3644  1.4495 -0.0732
17528THY    CA528672   2.284   6.904   5.246 -0.4460  0.7500  0.3303
17528THY    CM128673   2.247   6.955   5.377 -0.0452 -0.0247  0.2975
17528THY    HM128674   2.236   6.869   5.444 -1.8219  0.2976  0.7379
17528THY    HM228675   2.153   7.012   5.371  0.2503  1.7082  1.0132
17528THY    HM328676   2.317   7.024   5.426 -1.5881  0.3775  1.6421
17528THY    CA628677   2.205   6.809   5.183  0.7776  1.4861  0.3477
17528THY    HA628678   2.111   6.782   5.230  0.4120  0.5136 -0.1260
17529THY      O28679   5.924   5.239   2.048 -0.0397 -0.4099 -0.4184
17529THY     HO28680   5.896   5.332   2.045  1.3876  0.5598  0.0731
17529THY    CA128681   6.061   5.238   2.056 -1.0261 -0.0374 -0.6481
17529THY    CA228682   6.131   5.142   2.134  0.0548  0.6841  0.0753
17529THY    CP128683   6.050   5.050   2.224  0.3345  0.0219 -0.0825
17529THY    HP128684   5.946   5.036   2.191  0.5580  0.4055 -3.6463
17529THY    CP228685   6.033   5.100   2.361  0.2130 -0.0269 -1.1226
17529THY    HP228686   6.130   5.090   2.412 -0.9561  2.7106  0.2736
17529THY    HP328687   5.954   5.043   2.413  0.7146 -0.5880 -2.3613
17529THY    HP428688   5.999   5.204   2.350 -0.2252  3.0540 -0.8402
17529THY    CP328689   6.104   4.904   2.207  0.3894  0.0302  0.0788
17529THY    HP528690   6.041   4.837   2.266 -2.4613  0.4444  2.8803
17529THY    HP628691   6.212   4.901   2.219  0.3015  0.7329 -0.8854
17529THY    HP728692   6.092   4.875   2.102  0.7891 -0.1591  0.5911
17529THY    CA328693   6.271   5.144   2.140  0.0901  0.5282  0.2148
17529THY    HA328694   6.321   5.075   2.208  0.7398 -0.2656 -0.1037
17529THY    CA428695   6.344   5.229   2.053 -0.0484 -0.1074  0.0520
17529THY    HA428696   6.452   5.225   2.046  0.0456 -0.5650  2.4166
17529THY    CA528697   6.276   5.324   1.976  0.3504 -0.3935  0.8472
17529THY    CM128698   6.344   5.428   1.893 -0.3899  0.0434 -0.5979
17529THY    HM128699   6.342   5.528   1.937  3.9117 -0.0615 -0.3132
17529THY    HM228700   6.295   5.427   1.795 -2.2204  0.9056 -0.7033
17529THY    HM328701   6.449   5.404   1.874 -0.4169  1.8833 -2.4714
17529THY    CA628702   6.134   5.332   1.980  0.0868  0.2395  0.1436
17529THY    HA628703   6.087   5.408   1.918  2.0269  1.9007  2.8792
17530THY      O28704   4.132   4.811   6.537  0.1227  0.0381 -0.2264
17530THY     HO28705   4.040   4.785   6.552 -1.2408 -0.7594  3.4121
17530THY    CA128706   4.205   4.787   6.646  0.4068 -0.2850 -0.1813
17530THY    CA228707   4.345   4.796   6.650  0.1354 -0.5437  0.8896
17530THY    CP128708   4.428   4.847   6.535 -0.2894  0.7277 -0.3517
17530THY    HP128709   4.365   4.888   6.455 -1.4600  1.9198  0.2618
17530THY    CP228710   4.504   4.737   6.465 -0.3881  0.2763 -0.4544
17530THY    HP228711   4.562   4.781   6.382 -0.3726  0.2807 -0.4668
17530THY    HP328712   4.438   4.665   6.417  1.4174 -0.7881 -1.4801
17530THY    HP428713   4.573   4.697   6.540 -1.6195  2.0004  0.5464
17530THY    CP328714   4.525   4.964   6.564  0.6088 -0.1832 -0.3040
17530THY    HP528715   4.594   4.946   6.648 -0.6961  0.8317 -0.6768
17530THY    HP628716   4.462   5.051   6.584  0.6368  2.8265 -0.8691
17530THY    HP728717   4.581   4.993   6.474 -0.5321 -0.3288  1.6402
17530THY    CA328718   4.411   4.747   6.767 -0.3255 -0.1438 -0.0508
17530THY    HA328719   4.519   4.753   6.777 -0.3266 -0.2492  0.1723
17530THY    CA428720   4.345   4.695   6.873  0.3843 -0.6019 -0.3370
17530THY    HA428721   4.408   4.667   6.957  0.7369 -1.7672 -3.4902
17530THY    CA528722   4.206   4.704   6.878  0.5528  0.5538 -0.0132
17530THY    CM128723   4.125   4.636   6.990 -0.0212  0.4457 -1.1361
17530THY    HM128724   4.021   4.671   6.995  0.4995 -0.4432  0.6912
17530THY    HM228725   4.165   4.640   7.092  0.3907  0.2631 -0.0426
17530THY    HM328726   4.112   4.530   6.969 -1.6947  0.4872 -0.9598
17530THY    CA628727   4.139   4.745   6.757 -0.2840  0.4830  0.3598
17530THY    HA628728   4.031   4.737   6.760 -0.3564 -0.6181  0.8242
17531THY      O28729   0.340   4.611   7.850  0.0694 -0.0659 -1.0376
17531THY     HO28730   0.277   4.615   7.776  0.3458 -0.2437  1.9707
17531THY    CA128731   0.461   4.590   7.789 -0.1789 -0.0445 -0.2604
17531THY    CA228732   0.574   4.572   7.869  0.2623  0.0512 -0.1366
17531THY    CP128733   0.572   4.578   8.020  0.2571 -0.1213 -0.4739
17531THY    HP128734   0.481   4.625   8.059  0.9585 -1.3041  2.0344
17531THY    CP228735   0.683   4.672   8.068 -0.0544 -0.4402  0.4340
17531THY    HP228736   0.671   4.702   8.173 -0.1038 -0.3709  0.1745
17531THY    HP328737   0.671   4.761   8.005 -0.3009 -0.0824  0.6574
17531THY    HP428738   0.781   4.624   8.063 -0.4530 -2.7910 -0.2973
17531THY    CP328739   0.585   4.442   8.082 -0.5860  0.3043  1.0498
17531THY    HP528740   0.539   4.431   8.181 -0.3486  0.1632 -2.1097
17531THY    HP628741   0.689   4.407   8.088 -0.1732 -1.9781  1.7748
17531THY    HP728742   0.539   4.365   8.020 -0.4871  1.9301 -0.3694
17531THY    CA328743   0.702   4.537   7.815 -0.2003  0.2465  0.8471
17531THY    HA328744   0.792   4.529   7.875 -1.1240  1.4513 -1.4134
17531THY    CA428745   0.705   4.521   7.667 -0.1117 -0.4229  0.4458
17531THY    HA428746   0.790   4.479   7.615  0.2165  1.5097 -1.4364
17531THY    CA528747   0.593   4.555   7.596  0.2593  0.2648 -0.0189
17531THY    CM128748   0.599   4.553   7.447  0.1840  0.8628  0.8085
17531THY    HM128749   0.699   4.567   7.404  0.1389  0.8430  1.0669
17531THY    HM228750   0.541   4.634   7.401  1.8689 -2.0079  0.5258
17531THY    HM328751   0.561   4.458   7.408  3.3435  1.2348 -0.7441
17531THY    CA628752   0.473   4.590   7.655 -0.1447 -0.0555  0.1496
17531THY    HA628753   0.385   4.609   7.595 -0.4791  0.3256 -0.1598
17532THY      O28754   7.908   6.788   5.883 -0.5277  0.4213  0.1760
17532THY     HO28755   7.905   6.878   5.921 -0.6135  0.1899  0.2726
17532THY    CA128756   7.774   6.758   5.884 -0.3002 -0.2612  0.2938
17532THY    CA228757   7.726   6.641   5.820  0.6701  0.0264  0.7085
17532THY    CP128758   7.814   6.544   5.746 -0.7956  0.3690 -0.3058
17532THY    HP128759   7.749   6.463   5.710  0.4816  0.6876 -1.5256
17532THY    CP228760   7.924   6.479   5.836  0.3786  0.4390  0.0179
17532THY    HP228761   8.007   6.549   5.853  2.0522 -0.8929 -1.5126
17532THY    HP328762   7.967   6.403   5.770  4.2267  4.0926 -1.3441
17532THY    HP428763   7.876   6.423   5.917 -0.8678 -0.5538 -0.4079
17532THY    CP328764   7.880   6.600   5.613  0.2557 -0.2645  0.6986
17532THY    HP528765   7.799   6.633   5.546 -2.3345  1.8780 -0.8749
17532THY    HP628766   7.936   6.517   5.569 -0.0966  1.5486 -0.5580
17532THY    HP728767   7.960   6.670   5.638  1.6146 -2.0200 -0.1520
17532THY    CA328768   7.584   6.613   5.826 -0.7571 -0.0789 -0.4039
17532THY    HA328769   7.546   6.517   5.792  1.4093  1.6019 -1.9516
17532THY    CA428770   7.504   6.704   5.891 -0.2807  0.0108  0.0151
17532THY    HA428771   7.400   6.676   5.906 -0.9590 -3.2958  0.2977
17532THY    CA528772   7.547   6.819   5.946  0.5364 -0.7139  0.2310
17532THY    CM128773   7.447   6.898   6.029 -0.3857 -0.2690 -0.3270
17532THY    HM128774   7.359   6.919   5.966 -1.4289  1.3652  0.3821
17532THY    HM228775   7.494   6.986   6.074 -0.6126  1.3228 -0.9777
17532THY    HM328776   7.402   6.844   6.113 -0.5194  1.7326  2.7086
17532THY    CA628777   7.681   6.848   5.945 -0.6997 -0.7588 -0.1515
17532THY    HA628778   7.711   6.941   5.994 -0.2931  1.1795 -1.2387
17533THY      O28779   8.245   7.987   5.725  0.4867  0.3298 -0.0716
17533THY     HO28780   8.259   7.953   5.815 -0.0765  0.3089 -0.3734
17533THY    CA128781   8.125   7.937   5.687  0.8474  0.9339 -0.6748
17533THY    CA228782   8.085   7.932   5.551 -0.2922  0.3666 -0.1413
17533THY    CP128783   8.191   7.959   5.444 -0.4019  0.1093 -0.9758
17533THY    HP128784   8.293   7.971   5.482  0.3813 -2.1798  0.3472
17533THY    CP228785   8.157   8.095   5.363  0.1974  0.2514  0.3107
17533THY    HP228786   8.159   8.181   5.430 -0.2958  0.8179 -0.1107
17533THY    HP328787   8.056   8.091   5.322  0.6058 -0.7552 -2.7233
17533THY    HP428788   8.228   8.115   5.282 -0.9231 -1.3480 -1.7764
17533THY    CP328789   8.214   7.831   5.348 -0.2281  0.1436 -0.3916
17533THY    HP528790   8.231   7.747   5.416 -1.9245  2.7166  1.1916
17533THY    HP628791   8.296   7.836   5.276 -1.2911 -1.0549  0.7543
17533THY    HP728792   8.121   7.808   5.295 -2.2384  3.3591 -0.3172
17533THY    CA328793   7.952   7.900   5.519  0.1338 -0.3831 -0.2685
17533THY    HA328794   7.921   7.898   5.415 -0.6038 -0.2025  0.7849
17533THY    CA428795   7.865   7.856   5.618  0.3099 -0.0900  0.0267
17533THY    HA428796   7.762   7.835   5.589  0.3744 -0.6482  0.4527
17533THY    CA528797   7.910   7.858   5.756  0.5454  0.9007 -0.2370
17533THY    CM128798   7.816   7.831   5.872  0.1579  0.3101 -0.4213
17533THY    HM128799   7.797   7.725   5.892 -2.0262  0.1404 -0.1149
17533THY    HM228800   7.721   7.879   5.846  0.2329  0.0773 -0.3972
17533THY    HM328801   7.855   7.872   5.966 -0.6470  0.7146 -0.5493
17533THY    CA628802   8.040   7.901   5.786  0.7607  0.1164  0.0923
17533THY    HA628803   8.064   7.907   5.891 -0.7532  0.3964  3.3457
17534THY      O28804   4.735   2.725   3.808  0.5834  0.3681 -0.0203
17534THY     HO28805   4.827   2.693   3.815  0.8135  2.5160  0.9498
17534THY    CA128806   4.728   2.819   3.718 -0.2045  0.0972 -0.7732
17534THY    CA228807   4.609   2.890   3.689  0.0392  0.5641 -0.2516
17534THY    CP128808   4.476   2.863   3.766 -0.3070 -0.6551 -0.4660
17534THY    HP128809   4.506   2.822   3.863  4.3390 -1.6407  0.0544
17534THY    CP228810   4.388   2.763   3.696 -0.0445  0.4661 -0.3352
17534THY    HP228811   4.310   2.737   3.767 -0.4686  0.1591  0.0757
17534THY    HP328812   4.433   2.666   3.669 -0.1179 -2.0902  0.2568
17534THY    HP428813   4.336   2.796   3.605 -0.4992  1.3125  1.3757
17534THY    CP328814   4.396   2.991   3.790  0.2381 -0.1018  0.8821
17534THY    HP528815   4.345   3.024   3.699  0.8724  0.0972  2.5381
17534THY    HP628816   4.451   3.078   3.830  0.2645  0.2968  0.6861
17534THY    HP728817   4.315   2.958   3.856  0.4859 -0.0359  0.3996
17534THY    CA328818   4.608   2.964   3.570 -0.5169  0.7311 -0.1312
17534THY    HA328819   4.520   3.020   3.539  0.8411 -0.3176  1.5500
17534THY    CA428820   4.725   2.984   3.489 -0.4960 -0.3892 -0.8820
17534THY    HA428821   4.722   3.057   3.408  1.7904 -0.0713 -0.3543
17534THY    CA528822   4.842   2.937   3.540 -0.2387  0.2314 -0.1577
17534THY    CM128823   4.976   2.955   3.459  0.4142 -0.8373 -0.3423
17534THY    HM128824   4.968   3.058   3.423 -0.2967  0.1286 -0.0459
17534THY    HM228825   4.972   2.880   3.379 -0.5699  1.6664 -3.1356
17534THY    HM328826   5.068   2.941   3.517 -0.3141 -0.3719 -4.5739
17534THY    CA628827   4.845   2.850   3.654  0.1502  0.6935 -0.0932
17534THY    HA628828   4.938   2.801   3.682  0.1592  0.8515  0.0122
17535THY      O28829   1.386   8.863   6.044 -0.3105  0.6421  0.0722
17535THY     HO28830   1.470   8.845   5.998 -2.1809 -3.7671  1.0728
17535THY    CA128831   1.375   8.780   6.141 -0.1000 -0.2516  0.3540
17535THY    CA228832   1.291   8.815   6.251  0.5513 -0.1598  0.2154
17535THY    CP128833   1.217   8.947   6.253 -0.2546 -0.3668  0.0874
17535THY    HP128834   1.263   9.009   6.175  1.0399  0.0541 -0.3169
17535THY    CP228835   1.246   9.012   6.389 -0.3427 -0.6065 -0.3391
17535THY    HP228836   1.233   8.956   6.483 -0.1103  0.1840  0.8938
17535THY    HP328837   1.189   9.106   6.399  1.3505 -0.0073  0.6605
17535THY    HP428838   1.354   9.026   6.397 -0.4421 -1.7523  1.4340
17535THY    CP328839   1.067   8.944   6.223 -0.2896  0.3343 -0.2108
17535THY    HP528840   1.019   9.042   6.228 -2.0641 -0.4620 -0.9865
17535THY    HP628841   1.013   8.882   6.296  0.0559 -0.7640 -1.8741
17535THY    HP728842   1.034   8.904   6.126  0.8845 -0.5529  0.8967
17535THY    CA328843   1.266   8.714   6.352 -0.2303 -0.7163 -0.0149
17535THY    HA328844   1.195   8.727   6.433 -2.2422 -1.9846 -2.2891
17535THY    CA428845   1.329   8.590   6.337 -0.0784 -0.5476 -0.2455
17535THY    HA428846   1.310   8.519   6.416  0.7567 -0.4750 -0.4063
17535THY    CA528847   1.416   8.563   6.228  0.4024 -0.1991 -0.7628
17535THY    CM128848   1.475   8.426   6.217  0.1902  0.0635 -0.0476
17535THY    HM128849   1.525   8.410   6.121  0.1740 -0.1204  0.9604
17535THY    HM228850   1.397   8.349   6.216 -0.1707 -0.4547  0.3196
17535THY    HM328851   1.546   8.406   6.298 -1.3271  1.0741 -1.6157
17535THY    CA628852   1.439   8.658   6.132 -0.3123 -0.1719 -0.4426
17535THY    HA628853   1.500   8.635   6.045 -1.1741 -1.1691  0.9166
17536THY      O28854   6.677   8.497   5.612  0.5404 -0.3372 -0.2594
17536THY     HO28855   6.682   8.549   5.694 -1.6874  0.6500 -1.4671
17536THY    CA128856   6.652   8.573   5.507  0.9124 -0.0052  0.0975
17536THY    CA228857   6.607   8.521   5.381 -0.1791  0.5409  0.9288
17536THY    CP128858   6.585   8.365   5.364  0.4571  0.7832  0.1368
17536THY    HP128859   6.653   8.304   5.424 -1.0641  0.3300 -2.1407
17536THY    CP228860   6.618   8.331   5.208 -0.2089  0.2163  0.3770
17536THY    HP228861   6.525   8.345   5.153  0.0183 -0.3946 -0.4574
17536THY    HP328862   6.654   8.228   5.198 -3.5883  1.1779 -1.0419
17536THY    HP428863   6.696   8.394   5.165  2.5638  0.7345 -2.4626
17536THY    CP328864   6.439   8.325   5.409  0.7051  0.4972  0.2185
17536THY    HP528865   6.420   8.217   5.406  1.5150 -0.4188  0.0819
17536THY    HP628866   6.376   8.372   5.333  0.2335  0.0016 -1.1687
17536THY    HP728867   6.426   8.365   5.510  0.5495 -0.3637  2.4872
17536THY    CA328868   6.566   8.619   5.288  0.3249 -0.5604  0.9483
17536THY    HA328869   6.523   8.591   5.192 -1.6262  0.0144  1.7817
17536THY    CA428870   6.568   8.754   5.315 -0.0872  0.5082  0.7407
17536THY    HA428871   6.533   8.818   5.234 -2.1233 -0.7441 -1.7619
17536THY    CA528872   6.604   8.806   5.441 -0.5600  0.4403  0.2638
17536THY    CM128873   6.606   8.958   5.464 -0.0051  0.3208 -0.3221
17536THY    HM128874   6.708   8.979   5.498  0.0805  0.7028 -1.2726
17536THY    HM228875   6.532   8.981   5.541 -0.7643 -1.0017  2.0315
17536THY    HM328876   6.584   9.019   5.376 -0.7095 -0.3380 -1.4739
17536THY    CA628877   6.642   8.713   5.538  0.2118  0.0827  0.8678
17536THY    HA628878   6.657   8.752   5.638 -0.7333  1.5430 -2.2014
17537THY      O28879   7.751   5.140   5.829  0.2068 -0.0994  0.4009
17537THY     HO28880   7.667   5.103   5.861 -0.6339 -2.4383  0.1031
17537THY    CA128881   7.740   5.159   5.703  0.0330 -0.1305 -0.5973
17537THY    CA228882   7.847   5.197   5.624  0.4605 -0.1298  0.2370
17537THY    CP128883   7.984   5.230   5.680 -0.1034  0.5989  0.5084
17537THY    HP128884   7.969   5.283   5.775 -0.7453  0.2261  1.0022
17537THY    CP228885   8.067   5.320   5.598 -0.6463  0.3010 -0.1061
17537THY    HP228886   8.019   5.419   5.604 -2.0975 -1.3077 -0.6591
17537THY    HP328887   8.102   5.284   5.500  2.0152  0.3198  2.0662
17537THY    HP428888   8.155   5.330   5.663  0.1683 -0.4751 -1.8534
17537THY    CP328889   8.057   5.101   5.725 -0.3898  0.3024  0.0390
17537THY    HP528890   8.092   5.043   5.639 -3.1103 -0.9840  0.1644
17537THY    HP628891   7.991   5.042   5.790 -0.1433 -0.9493 -1.6959
17537THY    HP728892   8.146   5.136   5.779 -1.1453  1.6117  0.0126
17537THY    CA328893   7.832   5.203   5.487 -0.1435  0.1941 -0.1638
17537THY    HA328894   7.916   5.217   5.419 -1.2567 -1.2117 -0.1594
17537THY    CA428895   7.715   5.145   5.432  0.4639  0.4889  0.1805
17537THY    HA428896   7.702   5.132   5.325  0.9420  0.4895 -0.3489
17537THY    CA528897   7.609   5.102   5.513  0.0209  0.4695 -0.1961
17537THY    CM128898   7.482   5.066   5.446 -0.0135 -0.1884  0.4791
17537THY    HM128899   7.468   4.960   5.473 -1.2898 -0.0567  0.6658
17537THY    HM228900   7.489   5.086   5.339  0.4646 -0.4851 -1.1142
17537THY    HM328901   7.405   5.130   5.491  0.0373 -1.7236  1.6643
17537THY    CA628902   7.619   5.118   5.650  0.3761 -0.4249 -0.4670
17537THY    HA628903   7.528   5.110   5.707  0.0911 -0.2777  2.6559
17538THY      O28904   6.591   9.003   3.657  0.1172 -0.7732 -0.4635
17538THY     HO28905   6.507   9.025   3.613  0.7455 -0.6521  2.6651
17538THY    CA128906   6.678   9.092   3.609  0.3479 -0.5726  0.6675
17538THY    CA228907   6.778   9.136   3.698  0.3168  0.7996 -0.0731
17538THY    CP128908   6.777   9.096   3.852  0.2930  0.7365 -0.5826
17538THY    HP128909   6.728   8.998   3.866 -1.0752  0.1116 -0.0227
17538THY    CP228910   6.690   9.189   3.936 -0.6118  0.1347 -0.6098
17538THY    HP228911   6.682   9.158   4.041 -0.3923 -0.2933 -2.2030
17538THY    HP328912   6.584   9.183   3.908 -0.1700 -1.6584 -0.7499
17538THY    HP428913   6.722   9.294   3.932  0.9967  0.2559 -1.0592
17538THY    CP328914   6.914   9.088   3.902 -0.6486 -0.1609  0.3047
17538THY    HP528915   6.916   9.045   4.003 -1.2892  0.1203  0.9106
17538THY    HP628916   6.964   9.183   3.922 -0.7012  3.8798 -0.3557
17538THY    HP728917   6.973   9.034   3.827 -1.1028  0.6693 -1.4047
17538THY    CA328918   6.861   9.235   3.642 -0.1471  0.5748 -0.6774
17538THY    HA328919   6.944   9.274   3.700 -1.4060  0.2431  2.7855
17538THY    CA428920   6.841   9.282   3.511 -0.4125 -0.4173 -0.1822
17538THY    HA428921   6.913   9.354   3.475 -0.6601 -0.7331 -0.0890
17538THY    CA528922   6.741   9.239   3.433 -0.6550 -0.2921 -0.6807
17538THY    CM128923   6.700   9.309   3.302  0.0578  0.0474  0.7300
17538THY    HM128924   6.782   9.366   3.257  2.3589  1.3150 -1.3524
17538THY    HM228925   6.611   9.370   3.318 -0.9621  1.8347 -1.0936
17538THY    HM328926   6.680   9.233   3.225 -0.1979  2.3468 -1.7125
17538THY    CA628927   6.658   9.147   3.480  0.0068 -0.1696 -0.0536
17538THY    HA628928   6.571   9.117   3.421 -0.8507  0.5123  1.0092
17539THY      O28929   5.363   5.169   3.100  0.0309 -1.1338  0.5058
17539THY     HO28930   5.267   5.160   3.109  0.3204  0.0513 -3.2284
17539THY    CA128931   5.401   5.290   3.053 -0.2659 -0.3585 -0.7286
17539THY    CA228932   5.502   5.361   3.117  0.3881  0.0891  0.0006
17539THY    CP128933   5.572   5.316   3.249  0.0600 -0.4655  0.4022
17539THY    HP128934   5.578   5.207   3.233  1.4825  0.3677  0.3255
17539THY    CP228935   5.499   5.343   3.375  0.4123 -0.4266 -0.1069
17539THY    HP228936   5.516   5.272   3.457 -0.2991  0.9116  1.2066
17539THY    HP328937   5.392   5.342   3.350  0.3592 -0.1976 -0.2360
17539THY    HP428938   5.519   5.446   3.409  3.0482  1.0202 -0.9898
17539THY    CP328939   5.719   5.368   3.261  0.2323 -1.1695 -0.5863
17539THY    HP528940   5.734   5.475   3.277  0.3984  4.7249 -1.1670
17539THY    HP628941   5.758   5.346   3.161 -2.4231 -2.2251 -0.8420
17539THY    HP728942   5.764   5.332   3.354 -3.2810  1.3739  1.0392
17539THY    CA328943   5.536   5.482   3.057  0.1719 -1.5991 -0.4785
17539THY    HA328944   5.613   5.548   3.094 -0.4185 -1.7537  0.3087
17539THY    CA428945   5.476   5.528   2.942  0.5897  0.2108  0.1558
17539THY    HA428946   5.500   5.619   2.889 -0.5778 -0.1279  0.2866
17539THY    CA528947   5.369   5.457   2.884  0.0528  0.1955 -0.5214
17539THY    CM128948   5.296   5.509   2.764 -0.5788  0.4204  0.4147
17539THY    HM128949   5.216   5.576   2.796  0.4188  0.1707  1.7819
17539THY    HM228950   5.261   5.433   2.693 -0.7789 -2.6736  3.1616
17539THY    HM328951   5.363   5.566   2.697  2.3042  1.6877 -1.2331
17539THY    CA628952   5.331   5.338   2.944  0.2680  0.2808 -0.1405
17539THY    HA628953   5.259   5.272   2.896  1.2243 -0.7356 -0.4793
17540THY      O28954   0.814   5.275   6.005 -0.2610 -0.6439  0.2894
17540THY     HO28955   0.771   5.200   5.958  0.9494  0.3065 -1.0506
17540THY    CA128956   0.734   5.382   5.978 -0.0696 -0.3775  0.6175
17540THY    CA228957   0.762   5.513   6.038  0.2210  0.2070  0.0760
17540THY    CP128958   0.887   5.523   6.127  0.2758 -0.5864 -0.8780
17540THY    HP128959   0.950   5.434   6.119 -0.6791 -2.1961 -1.4555
17540THY    CP228960   0.842   5.522   6.277  0.4169 -0.0317 -0.0638
17540THY    HP228961   0.939   5.540   6.326  1.4575 -0.7212 -3.1468
17540THY    HP328962   0.792   5.435   6.320  0.8705  1.7871  0.5185
17540THY    HP428963   0.772   5.605   6.295  0.4727  2.1841 -0.4411
17540THY    CP328964   0.964   5.653   6.084 -1.0465 -0.3268 -0.2269
17540THY    HP528965   1.009   5.631   5.986  1.6979  0.7146  0.3254
17540THY    HP628966   1.055   5.670   6.143 -0.8944 -0.0515 -1.8521
17540THY    HP728967   0.904   5.745   6.082 -1.9184 -0.0474 -0.7840
17540THY    CA328968   0.669   5.619   6.022 -0.8507 -0.2951 -0.7303
17540THY    HA328969   0.685   5.718   6.063  0.1047  1.1054 -1.4358
17540THY    CA428970   0.552   5.604   5.947  0.5193  0.4722  0.0659
17540THY    HA428971   0.489   5.686   5.917 -1.0135  0.1092 -1.2018
17540THY    CA528972   0.523   5.478   5.889  0.1712 -0.3292 -0.2864
17540THY    CM128973   0.404   5.464   5.816 -0.3254  0.1226  0.1870
17540THY    HM128974   0.346   5.555   5.794 -1.8743 -0.1038 -0.8248
17540THY    HM228975   0.330   5.407   5.873 -0.5320  0.5389  0.8665
17540THY    HM328976   0.424   5.403   5.727  0.4231  0.7753 -0.5431
17540THY    CA628977   0.612   5.366   5.912 -0.0065 -0.4580  0.8662
17540THY    HA628978   0.589   5.263   5.887  0.1064 -0.3993  0.8262
17541THY      O28979   5.174   3.314   5.059 -0.2818 -0.3331  0.1810
17541THY     HO28980   5.190   3.265   4.978 -0.5734  1.7758 -3.7831
17541THY    CA128981   5.191   3.225   5.159  0.3049  0.8014  0.0517
17541THY    CA228982   5.234   3.256   5.289 -0.0768  0.0699 -0.3871
17541THY    CP128983   5.261   3.410   5.310 -0.4147 -0.1225 -0.2668
17541THY    HP128984   5.184   3.464   5.254 -0.0153 -0.6241 -0.2152
17541THY    CP228985   5.398   3.440   5.247  0.9832 -0.1822 -0.1857
17541THY    HP228986   5.383   3.454   5.140  0.6088 -0.1346 -0.2067
17541THY    HP328987   5.480   3.369   5.262  3.6312  0.5930  2.7985
17541THY    HP428988   5.442   3.529   5.294  0.4158  0.6447 -0.3248
17541THY    CP328989   5.260   3.450   5.465  0.1298  0.0702  0.6545
17541THY    HP528990   5.337   3.391   5.516 -1.4342  0.5021 -1.1081
17541THY    HP628991   5.163   3.431   5.511  0.0473 -0.3384  0.0758
17541THY    HP728992   5.277   3.558   5.478  1.1772 -1.3370  0.6895
17541THY    CA328993   5.257   3.160   5.389 -0.3183  0.2713 -0.6323
17541THY    HA328994   5.277   3.189   5.492 -1.3351  0.3938 -0.3026
17541THY    CA428995   5.245   3.026   5.357  0.2656  0.4461 -0.4503
17541THY    HA428996   5.256   2.951   5.435  0.1983  0.5616 -0.3398
17541THY    CA528997   5.198   2.998   5.234  0.3246 -0.2499  0.7706
17541THY    CM128998   5.171   2.854   5.208  0.3551  0.1875 -0.0534
17541THY    HM128999   5.180   2.783   5.292  1.4768 -0.2352 -0.4215
17541THY    HM229000   5.245   2.817   5.137  1.3583  1.3185 -0.2902
17541THY    HM329001   5.074   2.843   5.157  1.2070 -1.2706 -1.1420
17541THY    CA629002   5.170   3.091   5.132  0.5247  0.2745  0.0238
17541THY    HA629003   5.118   3.061   5.042  1.6132 -0.9015  1.4947
17542THY      O29004   2.171   4.278   2.877 -0.4090  0.6105 -0.5716
17542THY     HO29005   2.247   4.225   2.906  1.2347 -0.8866  0.8481
17542THY    CA129006   2.179   4.269   2.743  0.4820 -0.5026  0.1930
17542THY    CA229007   2.091   4.342   2.662  0.1869 -0.4439  0.4834
17542THY    CP129008   1.987   4.433   2.727 -0.4107  0.4511  0.0662
17542THY    HP129009   1.998   4.441   2.835 -4.2547  0.9065  1.5991
17542THY    CP229010   1.845   4.371   2.712  0.3054  0.9371  1.1906
17542THY    HP229011   1.771   4.422   2.774 -0.5965  0.8660  0.0187
17542THY    HP329012   1.838   4.264   2.735  1.2393 -0.4730  0.8018
17542THY    HP429013   1.817   4.375   2.606 -0.4663  1.1455  1.3302
17542THY    CP329014   2.001   4.572   2.670  0.6806  0.7510 -0.3151
17542THY    HP529015   1.934   4.649   2.710 -2.8295 -0.4933 -2.4608
17542THY    HP629016   1.990   4.594   2.563  4.8801  0.5056  1.4946
17542THY    HP729017   2.106   4.600   2.681  0.6072  0.2716  0.1700
17542THY    CA329018   2.099   4.333   2.525 -0.5863  0.0934  0.3097
17542THY    HA329019   2.032   4.379   2.454  0.2654  0.7780  2.7221
17542THY    CA429020   2.191   4.241   2.465  0.5553 -0.1499  0.2662
17542THY    HA429021   2.190   4.215   2.359 -0.5501  0.6301 -3.3122
17542THY    CA529022   2.280   4.172   2.549  0.4781  0.1501 -0.1806
17542THY    CM129023   2.379   4.075   2.480 -1.0368 -0.7717  0.2560
17542THY    HM129024   2.469   4.118   2.434  0.3828 -0.3668 -2.0773
17542THY    HM229025   2.329   4.026   2.396 -0.2030 -0.2561 -1.5327
17542THY    HM329026   2.405   4.005   2.560 -0.8333  0.9457  2.1745
17542THY    CA629027   2.272   4.183   2.693 -0.2443 -0.0338  0.0247
17542THY    HA629028   2.346   4.133   2.755 -0.0107  0.0965  0.5281
17543THY      O29029   5.188   8.279   4.157  0.5780 -0.0491  0.0019
17543THY     HO29030   5.251   8.333   4.108  2.0543  0.6855 -1.0011
17543THY    CA129031   5.274   8.175   4.191  0.2808  0.4119 -0.4675
17543THY    CA229032   5.248   8.074   4.284 -0.1972  0.1691 -0.8886
17543THY    CP129033   5.118   8.089   4.359  0.8190  0.4304  0.4325
17543THY    HP129034   5.050   8.144   4.292 -0.5379  0.3763 -1.2127
17543THY    CP229035   5.143   8.146   4.500  0.6717  0.2503 -0.1779
17543THY    HP229036   5.186   8.247   4.494  1.5805 -3.6311 -0.6084
17543THY    HP329037   5.208   8.081   4.559  2.8064 -0.1085  1.5134
17543THY    HP429038   5.047   8.168   4.546  2.1773  3.1733  0.7885
17543THY    CP329039   5.057   7.950   4.382  0.5153  0.1722 -0.2135
17543THY    HP529040   5.119   7.890   4.449  2.1301 -1.3678 -0.3629
17543THY    HP629041   5.045   7.892   4.290 -1.8868 -0.7662  1.5933
17543THY    HP729042   4.963   7.968   4.436  0.7304  0.4058  0.2436
17543THY    CA329043   5.351   7.982   4.316 -0.1937 -0.0748 -0.1680
17543THY    HA329044   5.336   7.904   4.390 -2.2438  1.4314  1.5204
17543THY    CA429045   5.468   7.975   4.240  0.4702  0.0585  0.7168
17543THY    HA429046   5.543   7.898   4.257 -0.1398 -0.3115  0.0334
17543THY    CA529047   5.491   8.070   4.141  0.6082  0.4028 -0.8940
17543THY    CM129048   5.624   8.073   4.073  0.5174  0.4511  0.0445
17543THY    HM129049   5.653   7.975   4.033 -1.5256 -0.3723 -0.2773
17543THY    HM229050   5.701   8.100   4.146 -1.4538  2.7508 -0.1912
17543THY    HM329051   5.618   8.144   3.990 -1.0987  0.4400 -0.0712
17543THY    CA629052   5.392   8.160   4.114  0.0106 -0.0927 -0.1575
17543THY    HA629053   5.415   8.232   4.035 -0.6241 -0.2284 -0.0973
17544THY      O29054   7.503   9.173   4.807  0.1168  0.2956 -1.0532
17544THY     HO29055   7.555   9.227   4.745 -1.6233 -1.0952 -0.8706
17544THY    CA129056   7.577   9.180   4.921  0.1270  0.2816  0.5250
17544THY    CA229057   7.529   9.132   5.048  0.2856 -0.2484 -0.7154
17544THY    CP129058   7.397   9.053   5.060 -0.1585  0.0470 -0.0481
17544THY    HP129059   7.370   9.021   4.959 -2.3864  0.5852 -0.0616
17544THY    CP229060   7.286   9.150   5.113  0.3424 -0.2362 -0.2088
17544THY    HP229061   7.189   9.100   5.124  0.5787  0.2019 -0.5757
17544THY    HP329062   7.281   9.241   5.052 -0.5417  1.6637  1.0997
17544THY    HP429063   7.330   9.179   5.210  1.0660 -1.2065  2.2281
17544THY    CP329064   7.413   8.917   5.134  0.6052 -0.1378 -0.5402
17544THY    HP529065   7.326   8.850   5.123  1.4755 -0.5541 -1.6318
17544THY    HP629066   7.429   8.945   5.238 -1.2406  0.2617 -0.8342
17544THY    HP729067   7.499   8.854   5.109  1.4945  1.9546 -0.2430
17544THY    CA329068   7.611   9.162   5.157 -0.4681 -0.9700  0.3340
17544THY    HA329069   7.570   9.132   5.254 -1.6987 -1.0169  1.7173
17544THY    CA429070   7.738   9.226   5.144 -0.7309 -0.6665  1.2432
17544THY    HA429071   7.805   9.250   5.226  0.9676 -1.6595  0.0039
17544THY    CA529072   7.794   9.246   5.020  1.0555  0.2977  0.1923
17544THY    CM129073   7.928   9.310   5.003 -0.4198 -0.0478  0.0436
17544THY    HM129074   7.943   9.402   5.061  2.4329 -0.8791  0.1915
17544THY    HM229075   7.930   9.360   4.905 -2.1121  0.9398  2.2489
17544THY    HM329076   8.017   9.248   5.012 -1.2620 -0.7514 -1.3084
17544THY    CA629077   7.703   9.243   4.908 -0.0722  0.2929  0.3329
17544THY    HA629078   7.736   9.290   4.816 -1.5511  0.6620  2.2340
17545THY      O29079   8.378   6.196   4.016 -0.7453 -0.0808  0.4511
17545THY     HO29080   8.380   6.139   3.937 -1.5067  0.2198 -0.0085
17545THY    CA129081   8.244   6.209   4.057  0.5402 -0.0514 -0.4777
17545THY    CA229082   8.199   6.324   4.124 -0.5455 -0.0554 -0.0890
17545THY    CP129083   8.286   6.446   4.124 -0.1992  0.2440 -0.4047
17545THY    HP129084   8.363   6.438   4.047  2.3251  2.8072 -3.2549
17545THY    CP229085   8.381   6.444   4.256  0.0827  0.3621 -0.1256
17545THY    HP229086   8.437   6.351   4.240 -0.9658 -0.4177 -0.6530
17545THY    HP329087   8.314   6.429   4.341  1.3878  1.6959  1.3234
17545THY    HP429088   8.441   6.535   4.271  0.6756  1.7852 -0.7214
17545THY    CP329089   8.210   6.574   4.118  0.7472 -0.0026 -0.4045
17545THY    HP529090   8.171   6.598   4.218  0.8224  0.2895 -1.4264
17545THY    HP629091   8.128   6.558   4.047  0.2316  0.8184 -1.6287
17545THY    HP729092   8.281   6.653   4.091  0.5177 -1.1900 -0.5848
17545THY    CA329093   8.064   6.327   4.155 -0.2075  0.9180 -0.1152
17545THY    HA329094   8.020   6.417   4.196 -0.4761  1.3429 -0.4365
17545THY    CA429095   7.981   6.216   4.134  0.3036  0.2023 -0.5429
17545THY    HA429096   7.880   6.227   4.171  1.0137  1.8488  1.2985
17545THY    CA529097   8.032   6.099   4.083 -0.3832  0.4284  0.2411
17545THY    CM129098   7.943   5.982   4.062 -0.2162  0.3550  0.0709
17545THY    HM129099   7.875   5.992   3.977  0.4014  0.0510  2.6475
17545THY    HM229100   7.889   5.958   4.154  1.1019  0.8522 -1.0978
17545THY    HM329101   8.013   5.899   4.047 -0.4981 -0.9910  0.0554
17545THY    CA629102   8.164   6.101   4.034  0.1894 -0.4186  0.2515
17545THY    HA629103   8.202   6.012   3.986  0.7223 -0.7734  0.6639
17546THY      O29104   7.648   6.728   4.948 -0.3273 -0.2248 -0.8887
17546THY     HO29105   7.675   6.693   5.035  0.7940 -0.4800 -0.6858
17546THY    CA129106   7.527   6.791   4.966  0.4434  0.0467  0.3071
17546THY    CA229107   7.451   6.835   4.860  0.6427 -0.2197  0.1462
17546THY    CP129108   7.504   6.846   4.720 -0.2554 -0.7346  0.6734
17546THY    HP129109   7.545   6.748   4.694 -0.0742  2.0278 -0.0707
17546THY    CP229110   7.610   6.960   4.709  0.0120 -0.2687  0.3295
17546THY    HP229111   7.633   6.976   4.603 -0.2030 -0.7143 -2.0288
17546THY    HP329112   7.696   6.928   4.769  1.6974 -1.7059  1.9680
17546THY    HP429113   7.566   7.053   4.747  2.0602 -0.8809  1.6159
17546THY    CP329114   7.405   6.867   4.605 -0.2987  0.5706  0.9439
17546THY    HP529115   7.461   6.852   4.512  2.1332  2.2204 -0.9671
17546THY    HP629116   7.347   6.960   4.605 -0.2485  0.7820  0.9756
17546THY    HP729117   7.333   6.785   4.612  0.5179 -1.4348 -0.0144
17546THY    CA329118   7.323   6.876   4.893 -0.0953 -0.4866  0.1699
17546THY    HA329119   7.259   6.919   4.816 -1.9487  1.6299  1.3717
17546THY    CA429120   7.278   6.878   5.025  0.0517  0.0469  0.2628
17546THY    HA429121   7.182   6.920   5.052  0.9401  1.7457  1.3163
17546THY    CA529122   7.358   6.829   5.124 -0.8490  0.1433  0.4418
17546THY    CM129123   7.313   6.842   5.272 -0.2335 -0.3766 -0.1560
17546THY    HM129124   7.218   6.894   5.282  1.2958  0.2650  2.6837
17546THY    HM229125   7.381   6.889   5.344  1.6677 -0.0295 -3.1386
17546THY    HM329126   7.290   6.741   5.307  0.1748 -0.8993 -0.4397
17546THY    CA629127   7.489   6.792   5.099  0.2198  0.0794  0.2518
17546THY    HA629128   7.554   6.764   5.180  0.8656 -0.4922  0.0691
17547THY      O29129   6.204   3.998   5.881 -0.3487  0.1987 -0.0406
17547THY     HO29130   6.183   3.904   5.891 -1.4526  0.6691  0.2428
17547THY    CA129131   6.210   4.037   6.008 -0.8710 -0.4574 -0.3089
17547THY    CA229132   6.280   4.163   6.041 -0.0561  0.0185 -0.2053
17547THY    CP129133   6.370   4.230   5.942  0.3413  0.1741  0.5427
17547THY    HP129134   6.319   4.213   5.846 -0.4786  0.6460  0.2894
17547THY    CP229135   6.510   4.155   5.928  0.7663 -0.0502  0.5525
17547THY    HP229136   6.500   4.046   5.914  1.1017  2.6842  0.0900
17547THY    HP329137   6.557   4.153   6.028 -0.4981  0.5739  1.0840
17547THY    HP429138   6.579   4.201   5.856  0.9094 -0.1727  0.1531
17547THY    CP329139   6.390   4.378   5.948  0.0932 -0.1542  0.6989
17547THY    HP529140   6.297   4.433   5.932  0.9446  0.0454  2.2385
17547THY    HP629141   6.448   4.404   5.858 -1.7857 -2.3802 -2.1294
17547THY    HP729142   6.435   4.415   6.041 -0.3745  0.1358  0.5414
17547THY    CA329143   6.263   4.213   6.171 -0.1438  0.2556  0.0316
17547THY    HA329144   6.316   4.301   6.205 -1.3943  0.7688  0.6139
17547THY    CA429145   6.182   4.131   6.262  0.2031  1.3301  0.4943
17547THY    HA429146   6.180   4.158   6.367 -1.4130  1.1544  1.1445
17547THY    CA529147   6.120   4.017   6.232  0.0079  0.1721 -0.2217
17547THY    CM129148   6.039   3.957   6.329  0.1275 -0.0289 -0.3017
17547THY    HM129149   6.056   3.849   6.341  3.4503  1.1308  0.2228
17547THY    HM229150   5.937   3.970   6.291  0.7746 -2.1826 -1.1593
17547THY    HM329151   6.044   4.002   6.429  1.8189 -0.0669 -0.3237
17547THY    CA629152   6.134   3.970   6.102 -0.1488  0.1205 -0.1324
17547THY    HA629153   6.079   3.881   6.075 -2.1390 -1.6153  1.4984
17548THY      O29154   3.437   5.536   2.372  0.6102  0.1467 -0.6226
17548THY     HO29155   3.399   5.571   2.454  1.3283 -0.3406  1.4578
17548THY    CA129156   3.569   5.575   2.378 -0.3872  0.3569 -0.1839
17548THY    CA229157   3.671   5.504   2.305  0.4867 -0.4255  0.1901
17548THY    CP129158   3.632   5.390   2.204 -0.5925  0.3415 -0.3308
17548THY    HP129159   3.529   5.406   2.170 -0.2002 -0.7764 -0.1310
17548THY    CP229160   3.648   5.255   2.279 -0.2754 -0.4271  0.3262
17548THY    HP229161   3.584   5.276   2.365  0.7382 -0.3235  3.4144
17548THY    HP329162   3.750   5.232   2.312  0.2503 -1.5284  0.9935
17548THY    HP429163   3.602   5.174   2.221  1.5943 -1.3772 -0.1212
17548THY    CP329164   3.727   5.394   2.074  0.7902  0.4483  0.3847
17548THY    HP529165   3.763   5.496   2.059  0.6062 -1.4725  0.1945
17548THY    HP629166   3.675   5.354   1.986  0.7440  0.4893  0.3539
17548THY    HP729167   3.809   5.326   2.100  0.7060  1.8360  0.7770
17548THY    CA329168   3.804   5.544   2.329 -0.5069  0.7113  0.7540
17548THY    HA329169   3.883   5.490   2.278 -0.7584  2.0011 -0.9181
17548THY    CA429170   3.832   5.642   2.429 -0.4896 -0.0014  0.6182
17548THY    HA429171   3.934   5.678   2.439  0.0521  0.9243 -1.1066
17548THY    CA529172   3.730   5.702   2.498 -0.1312  0.2117 -0.3967
17548THY    CM129173   3.766   5.804   2.605  0.1940 -0.1251  0.1947
17548THY    HM129174   3.852   5.871   2.589 -0.1598  0.4816  0.8042
17548THY    HM229175   3.801   5.747   2.692  1.4442 -0.3964  0.5085
17548THY    HM329176   3.681   5.867   2.634 -1.7602  1.1525 -2.8237
17548THY    CA629177   3.599   5.664   2.485  0.0513  0.1249  0.3252
17548THY    HA629178   3.516   5.715   2.532 -0.8412 -0.0777 -0.8969
17549THY      O29179   0.292   5.956   3.631 -0.0114 -0.6384  0.0421
17549THY     HO29180   0.258   5.970   3.721 -1.1669 -0.7294 -1.7954
17549THY    CA129181   0.431   5.968   3.638 -0.6818  0.5033 -0.5011
17549THY    CA229182   0.505   5.973   3.515 -0.0204 -0.2387  0.4978
17549THY    CP129183   0.428   5.969   3.378 -0.4311  0.4957  0.1246
17549THY    HP129184   0.333   6.018   3.402 -0.0475  0.4644  0.8939
17549THY    CP229185   0.403   5.832   3.319 -0.3806  0.0086  0.1398
17549THY    HP229186   0.343   5.769   3.386  1.6572  0.2598 -1.6548
17549THY    HP329187   0.498   5.782   3.298 -1.2247 -0.2935 -1.4120
17549THY    HP429188   0.355   5.837   3.220  0.6170 -0.4437  0.8870
17549THY    CP329189   0.488   6.062   3.282 -0.3723 -0.1557  0.8152
17549THY    HP529190   0.422   6.060   3.194  0.6962 -0.9682 -0.2779
17549THY    HP629191   0.584   6.030   3.241 -1.2891 -0.8042 -1.3323
17549THY    HP729192   0.491   6.166   3.316 -2.5883  1.7798  0.3499
17549THY    CA329193   0.643   5.969   3.517 -0.0986  0.8876 -0.2724
17549THY    HA329194   0.705   5.969   3.428  0.4207  1.2382  0.2759
17549THY    CA429195   0.709   5.959   3.645 -0.1475  0.8674 -0.4424
17549THY    HA429196   0.817   5.952   3.646 -0.0157  1.5568  1.2002
17549THY    CA529197   0.638   5.965   3.767 -0.0983 -0.3463 -0.0596
17549THY    CM129198   0.701   5.953   3.903 -0.0646  0.1457 -0.1196
17549THY    HM129199   0.797   5.904   3.885 -0.2479 -0.9689 -0.0951
17549THY    HM229200   0.639   5.886   3.962  0.3482 -0.1763 -0.7954
17549THY    HM329201   0.720   6.045   3.959  0.8239  0.1901 -0.3233
17549THY    CA629202   0.498   5.974   3.759  0.5088  0.0573 -0.2146
17549THY    HA629203   0.441   5.979   3.851  0.8248  0.2226  0.7287
17550THY      O29204   1.476   7.948   6.796 -0.2387 -0.2309  0.0773
17550THY     HO29205   1.540   7.901   6.853 -1.8185  1.6256  0.0514
17550THY    CA129206   1.453   7.859   6.704 -0.1264 -0.7954 -0.0014
17550THY    CA229207   1.426   7.900   6.576  0.4079  0.1674 -0.0319
17550THY    CP129208   1.446   8.047   6.537  0.0430  1.1733 -0.6510
17550THY    HP129209   1.456   8.107   6.628 -0.9521  1.2203 -0.5356
17550THY    CP229210   1.323   8.095   6.451 -0.4906 -1.2935 -0.5992
17550THY    HP229211   1.317   8.204   6.440 -2.5253 -0.0578 -0.5346
17550THY    HP329212   1.236   8.067   6.511 -0.5264  0.4118  2.6581
17550THY    HP429213   1.317   8.044   6.354  1.0999 -1.6655 -0.1379
17550THY    CP329214   1.576   8.076   6.462  0.2633  0.3405  0.0869
17550THY    HP529215   1.586   8.185   6.458  0.0477 -0.3116  0.0826
17550THY    HP629216   1.595   8.031   6.364  0.9233 -0.3647  1.8163
17550THY    HP729217   1.650   8.036   6.533 -0.6388  0.2854 -1.7520
17550THY    CA329218   1.378   7.809   6.486 -0.2151  0.1551  0.8581
17550THY    HA329219   1.358   7.834   6.383 -0.3408 -0.2054 -0.6132
17550THY    CA429220   1.359   7.671   6.523  0.1598  0.2849 -0.2035
17550THY    HA429221   1.324   7.590   6.459 -1.1609  2.3964 -1.3972
17550THY    CA529222   1.382   7.633   6.654  0.2890 -0.3592 -0.1014
17550THY    CM129223   1.331   7.497   6.709 -0.3490  0.5418  0.3218
17550THY    HM129224   1.271   7.439   6.638  0.2481 -0.3126  0.7358
17550THY    HM229225   1.280   7.521   6.803 -1.4427 -0.4656  2.1867
17550THY    HM329226   1.411   7.426   6.733 -0.8082  1.3531  0.0640
17550THY    CA629227   1.437   7.724   6.743  0.5208  0.2895  0.5486
17550THY    HA629228   1.446   7.688   6.845  0.7335 -0.4773 -1.7363
17551THY      O29229   2.373   4.504   3.288  0.6480  0.3191  0.2169
17551THY     HO29230   2.295   4.548   3.250  2.0627 -1.9810  0.8733
17551THY    CA129231   2.353   4.470   3.414  0.1592 -0.5513  1.6284
17551THY    CA229232   2.450   4.393   3.484  0.2323 -0.0148 -0.1869
17551THY    CP129233   2.586   4.358   3.414 -1.5329 -0.0751  0.0785
17551THY    HP129234   2.580   4.381   3.307  1.8344 -0.1294  1.3076
17551THY    CP229235   2.630   4.216   3.438 -0.2558 -0.1255 -0.3279
17551THY    HP229236   2.697   4.197   3.523  0.8614 -1.4616 -3.0070
17551THY    HP329237   2.685   4.173   3.354  0.8827  0.7870 -0.7340
17551THY    HP429238   2.536   4.162   3.451 -0.2863 -1.3268 -0.5955
17551THY    CP329239   2.696   4.459   3.455  0.2773  0.5485 -0.3154
17551THY    HP529240   2.736   4.437   3.555 -0.0129  0.3556 -1.8112
17551THY    HP629241   2.644   4.555   3.457 -1.9380  2.7064 -1.4537
17551THY    HP729242   2.777   4.468   3.382 -0.8250 -0.4865  1.9758
17551THY    CA329243   2.423   4.354   3.622  0.3709  0.3989  0.2372
17551THY    HA329244   2.493   4.291   3.676 -0.1804  0.1126 -0.6326
17551THY    CA429245   2.297   4.373   3.673 -0.3166  0.0125  0.0486
17551THY    HA429246   2.271   4.339   3.773 -0.2106  0.2831  0.7445
17551THY    CA529247   2.198   4.431   3.597 -0.8635 -0.4138  0.3598
17551THY    CM129248   2.053   4.438   3.652  0.2560  0.0633  0.0386
17551THY    HM129249   2.018   4.541   3.668  0.7348  1.4869 -0.0063
17551THY    HM229250   2.037   4.381   3.744 -1.5644 -0.9975 -1.2368
17551THY    HM329251   1.982   4.389   3.584  0.6630  0.1637 -0.7092
17551THY    CA629252   2.231   4.489   3.472 -0.2630 -0.4661  0.3528
17551THY    HA629253   2.149   4.532   3.415 -1.9038  1.5411  0.0430
17552THY      O29254   7.594   8.723   5.736  0.0578  0.0715 -0.6597
17552THY     HO29255   7.605   8.629   5.757 -0.1407  3.1490 -0.1236
17552THY    CA129256   7.580   8.729   5.604 -0.3360  0.2293 -0.0956
17552THY    CA229257   7.652   8.817   5.525 -0.3326  0.1358  0.3968
17552THY    CP129258   7.742   8.922   5.584 -0.6463 -0.2959  0.0588
17552THY    HP129259   7.737   8.924   5.694  1.5369 -0.1552  0.2053
17552THY    CP229260   7.710   9.058   5.528  0.1982  0.1646  1.1184
17552THY    HP229261   7.793   9.123   5.558  1.1133  1.7928 -0.7044
17552THY    HP329262   7.630   9.104   5.587  0.6830 -0.0483  2.2751
17552THY    HP429263   7.677   9.052   5.424  0.5555  0.1350 -0.9461
17552THY    CP329264   7.889   8.897   5.540 -0.1135  0.5399  0.0989
17552THY    HP529265   7.952   8.979   5.574  1.8479 -0.9970 -0.6825
17552THY    HP629266   7.907   8.888   5.432 -1.2156  0.5003 -2.6151
17552THY    HP729267   7.923   8.800   5.579  1.0607 -0.4652  0.0769
17552THY    CA329268   7.646   8.801   5.380  0.6572  0.1980 -0.5890
17552THY    HA329269   7.697   8.860   5.304 -0.6062 -0.5412 -0.4178
17552THY    CA429270   7.561   8.702   5.323  0.1711 -0.0951 -0.4145
17552THY    HA429271   7.570   8.681   5.217 -0.6469 -0.1406 -0.5499
17552THY    CA529272   7.503   8.610   5.409  0.4187  0.0567 -0.4714
17552THY    CM129273   7.418   8.499   5.358 -0.2894  0.0199 -0.2554
17552THY    HM129274   7.339   8.466   5.426 -2.1154 -0.8748  2.0041
17552THY    HM229275   7.488   8.423   5.323  0.9967  1.5323  0.1698
17552THY    HM329276   7.361   8.528   5.269 -0.5801  0.2020 -0.2634
17552THY    CA629277   7.512   8.628   5.548  0.7174 -0.3117 -0.3356
17552THY    HA629278   7.473   8.544   5.605 -0.0228  0.9571  0.8300
17553THY      O29279   6.222   1.954   6.620 -0.0734  0.3948 -0.0294
17553THY     HO29280   6.312   1.949   6.655  0.4705 -0.4116  2.5228
17553THY    CA129281   6.187   2.078   6.661  0.9219 -0.0319 -0.4794
17553THY    CA229282   6.189   2.179   6.571  0.2527  0.2483  0.2340
17553THY    CP129283   6.230   2.154   6.423  0.1914 -0.7672  0.3542
17553THY    HP129284   6.291   2.063   6.423 -0.2559 -0.6281  0.0512
17553THY    CP229285   6.326   2.264   6.380  0.2961  0.0785  0.5393
17553THY    HP229286   6.374   2.233   6.286 -0.1673 -0.3512  1.1184
17553THY    HP329287   6.407   2.267   6.454 -0.2136  0.7532 -1.3459
17553THY    HP429288   6.275   2.357   6.352  2.5765 -0.1518  1.8099
17553THY    CP329289   6.111   2.137   6.329 -0.2358 -0.5720 -0.0050
17553THY    HP529290   6.151   2.086   6.240 -0.1428  0.3641 -1.6579
17553THY    HP629291   6.047   2.224   6.312 -0.7029 -0.1882 -0.2683
17553THY    HP729292   6.037   2.074   6.379 -0.5789  1.2488  1.7608
17553THY    CA329293   6.149   2.310   6.609  0.4388  0.0898  0.8220
17553THY    HA329294   6.166   2.394   6.543 -0.0743 -1.5899 -0.3561
17553THY    CA429295   6.112   2.330   6.742  0.2097 -0.0525  0.1216
17553THY    HA429296   6.091   2.431   6.777  2.0832  0.7433  0.2708
17553THY    CA529297   6.113   2.225   6.833  0.5482 -0.0045 -0.3979
17553THY    CM129298   6.065   2.254   6.971 -0.3177 -0.3318  0.8206
17553THY    HM129299   6.147   2.290   7.034 -0.0999 -0.3469  0.3632
17553THY    HM229300   6.021   2.168   7.024  1.9626  3.2810  1.6932
17553THY    HM329301   5.993   2.336   6.966  0.4769 -1.3007  1.4873
17553THY    CA629302   6.155   2.099   6.792 -0.2922  0.7025  0.0274
17553THY    HA629303   6.155   2.010   6.855  2.3828 -0.1984 -0.7317
17554THY      O29304   8.896   5.312   2.348 -0.4279 -0.4273 -0.3640
17554THY     HO29305   8.825   5.254   2.315 -1.3929  1.0989 -0.1144
17554THY    CA129306   9.014   5.256   2.306  0.8244  0.4636  0.9214
17554THY    CA229307   9.139   5.311   2.337  0.0368  1.0231 -0.0038
17554THY    CP129308   9.143   5.431   2.430 -0.4531  1.2858  0.2152
17554THY    HP129309   9.046   5.483   2.419 -0.5201 -1.4211 -0.3306
17554THY    CP229310   9.257   5.529   2.395 -0.0732 -0.1743  0.5274
17554THY    HP229311   9.273   5.556   2.290  2.2891 -0.8659 -2.7855
17554THY    HP329312   9.349   5.473   2.419 -0.9309 -1.4685 -1.5922
17554THY    HP429313   9.244   5.619   2.456  0.8146  1.9739 -0.6994
17554THY    CP329314   9.162   5.374   2.567 -0.5673  0.2402 -0.1566
17554THY    HP529315   9.169   5.455   2.641  1.0953  0.1685 -0.2128
17554THY    HP629316   9.262   5.329   2.576 -0.6127 -1.6462 -0.7040
17554THY    HP729317   9.082   5.311   2.608  0.4101  1.3343 -0.7368
17554THY    CA329318   9.248   5.252   2.280  0.2038 -0.0587 -0.3747
17554THY    HA329319   9.344   5.300   2.298  0.2865 -0.4917 -0.3771
17554THY    CA429320   9.247   5.133   2.221  0.4580  0.2331 -0.1067
17554THY    HA429321   9.339   5.085   2.189 -1.0786 -0.0765 -3.0477
17554THY    CA529322   9.122   5.071   2.191 -0.8449  0.2530 -0.4382
17554THY    CM129323   9.120   4.937   2.129  0.0847  0.7930  0.3862
17554THY    HM129324   9.211   4.914   2.072  0.3669  1.7331 -0.9031
17554THY    HM229325   9.039   4.942   2.055 -0.0485  0.7917 -1.3075
17554THY    HM329326   9.097   4.857   2.200  1.5877  1.3187  0.3902
17554THY    CA629327   9.009   5.138   2.228  0.1886 -0.7148  0.1938
17554THY    HA629328   8.912   5.091   2.218  0.5128 -0.7395 -0.4841
17555THY      O29329   4.959   1.849   4.526  0.1786  0.7565  0.0033
17555THY     HO29330   4.962   1.845   4.623 -0.9492  0.7808 -0.7029
17555THY    CA129331   5.078   1.795   4.475 -0.0843 -0.3898  0.9042
17555THY    CA229332   5.102   1.779   4.333  0.3251  0.5024  0.0489
17555THY    CP129333   5.004   1.825   4.225 -0.2039 -0.4622 -0.6922
17555THY    HP129334   4.913   1.848   4.282 -0.0432 -0.6368  0.4302
17555THY    CP229335   4.960   1.709   4.132 -0.6166 -0.0658  0.3814
17555THY    HP229336   5.047   1.680   4.072 -0.2933  1.4212 -2.0577
17555THY    HP329337   4.886   1.752   4.064 -0.4279  0.4339  1.5276
17555THY    HP429338   4.929   1.628   4.199 -0.5519 -0.3475  0.1224
17555THY    CP329339   5.054   1.958   4.165  0.4910  0.0595  0.0919
17555THY    HP529340   4.984   2.042   4.156 -0.9152 -0.0472 -1.0661
17555THY    HP629341   5.131   1.930   4.092  0.1582 -0.4656  0.5489
17555THY    HP729342   5.118   2.006   4.241 -1.7884 -0.2348  4.0696
17555THY    CA329343   5.227   1.731   4.292 -0.5517  0.0593 -0.1500
17555THY    HA329344   5.247   1.732   4.185  0.9366  0.3151  0.8664
17555THY    CA429345   5.325   1.686   4.387  0.2600  0.5611 -0.3856
17555THY    HA429346   5.419   1.637   4.363  0.2017  1.8954 -1.1810
17555THY    CA529347   5.294   1.694   4.528  0.0400 -0.1386  0.4193
17555THY    CM129348   5.382   1.636   4.633 -0.1440 -0.3852  0.3916
17555THY    HM129349   5.381   1.682   4.732  1.0708  0.2926 -0.9504
17555THY    HM229350   5.480   1.633   4.584  0.3513  0.4535  1.8121
17555THY    HM329351   5.352   1.534   4.660  2.9601  0.7177 -0.3388
17555THY    CA629352   5.173   1.747   4.562 -0.2353 -0.5061 -0.4509
17555THY    HA629353   5.156   1.757   4.669  1.5159 -0.1742 -0.5733
17556THY      O29354   4.775   7.137   6.594  0.8124  0.4869  0.4075
17556THY     HO29355   4.778   7.234   6.605  3.0105 -1.6772  0.6760
17556THY    CA129356   4.900   7.093   6.621 -0.1877 -0.2103  0.2948
17556THY    CA229357   4.932   6.959   6.588 -0.3242 -0.5099  0.4190
17556THY    CP129358   4.820   6.865   6.539  0.2437  0.7611 -0.2562
17556THY    HP129359   4.730   6.921   6.512 -0.7688  0.3790 -2.0164
17556THY    CP229360   4.770   6.768   6.646 -0.2066  0.4885 -0.4087
17556THY    HP229361   4.779   6.833   6.734  3.1506  0.2634 -0.4100
17556THY    HP329362   4.841   6.685   6.652  1.6570 -0.8323  1.0180
17556THY    HP429363   4.673   6.716   6.645 -0.0855  2.9429 -0.8058
17556THY    CP329364   4.851   6.774   6.419  0.2659 -0.5694  0.0113
17556THY    HP529365   4.924   6.699   6.451  0.4266  2.1857  1.2214
17556THY    HP629366   4.892   6.842   6.343 -0.8840 -1.1746  0.0577
17556THY    HP729367   4.765   6.717   6.382 -0.8280  2.5720 -0.5906
17556THY    CA329368   5.072   6.914   6.597 -0.1355  0.4129  0.0067
17556THY    HA329369   5.107   6.815   6.568 -0.3930 -2.5699  0.6778
17556THY    CA429370   5.163   7.005   6.657  0.0720  0.1344  0.4187
17556THY    HA429371   5.264   6.971   6.674 -0.9933  1.0166 -2.6688
17556THY    CA529372   5.133   7.134   6.688 -0.5042 -0.9585 -0.1147
17556THY    CM129373   5.234   7.232   6.749  0.2653 -0.1202  0.0316
17556THY    HM129374   5.193   7.319   6.802  1.5958  4.0782 -1.6188
17556THY    HM229375   5.306   7.261   6.673 -0.1650  0.2750  2.3850
17556THY    HM329376   5.282   7.171   6.827 -1.8231 -0.0253 -1.6342
17556THY    CA629377   4.999   7.179   6.660 -0.7964  0.0742  0.3704
17556THY    HA629378   4.971   7.280   6.688 -1.7128  0.4000  0.0426
17557THY      O29379   6.270   3.734   5.824  0.2084 -0.1492 -0.3437
17557THY     HO29380   6.233   3.717   5.736 -0.2503  0.1271 -0.7902
17557THY    CA129381   6.355   3.628   5.842 -0.0332 -0.1292 -0.0414
17557THY    CA229382   6.392   3.592   5.977 -0.2390  0.0666 -0.5581
17557THY    CP129383   6.322   3.640   6.097  0.2247  0.0801 -0.5959
17557THY    HP129384   6.225   3.675   6.058  0.3310 -0.7137 -1.1671
17557THY    CP229385   6.396   3.764   6.155 -0.6615 -0.4888  0.5928
17557THY    HP229386   6.502   3.743   6.174 -0.5181 -0.7677  1.0248
17557THY    HP329387   6.350   3.801   6.247  0.9939  0.4077  0.5547
17557THY    HP429388   6.399   3.850   6.086  2.8878 -0.7970  0.3816
17557THY    CP329389   6.298   3.544   6.206 -0.0432 -0.2269 -0.1486
17557THY    HP529390   6.394   3.502   6.235  0.4478  0.1939  1.2108
17557THY    HP629391   6.233   3.464   6.170 -1.2766  1.1441  0.1981
17557THY    HP729392   6.247   3.590   6.291  0.2071  0.5409 -1.2703
17557THY    CA329393   6.493   3.488   5.983  0.4618 -0.6097  0.2081
17557THY    HA329394   6.526   3.459   6.082 -1.4385  0.3676  1.2253
17557THY    CA429395   6.530   3.413   5.867 -0.4212 -0.1836  0.2899
17557THY    HA429396   6.606   3.337   5.882 -0.1024 -1.7712  0.2696
17557THY    CA529397   6.485   3.456   5.736  0.0619  0.0526  0.9506
17557THY    CM129398   6.527   3.407   5.604 -0.0744  0.0305 -0.2671
17557THY    HM129399   6.613   3.341   5.622 -0.3803  2.0568 -0.1681
17557THY    HM229400   6.529   3.490   5.532  1.1371  1.1442  0.7308
17557THY    HM329401   6.452   3.340   5.561  1.7003  1.4446 -3.3855
17557THY    CA629402   6.403   3.567   5.731 -0.1465 -0.1970 -0.6688
17557THY    HA629403   6.381   3.608   5.632 -0.3654  1.1882  2.9797
17558THY      O29404   3.350   1.679   2.867  0.0870 -0.5484  0.6360
17558THY     HO29405   3.271   1.708   2.818  0.6124 -2.3087 -0.6948
17558THY    CA129406   3.343   1.542   2.861  0.2406 -0.4596  0.0108
17558THY    CA229407   3.453   1.462   2.883 -0.0214  0.1850  0.1541
17558THY    CP129408   3.595   1.529   2.908 -0.5203  0.0396 -0.1090
17558THY    HP129409   3.607   1.611   2.837 -3.1442 -0.0050  0.3044
17558THY    CP229410   3.712   1.439   2.873 -0.9436 -0.2668 -0.1608
17558THY    HP229411   3.716   1.404   2.769  0.9092 -0.1109 -0.5383
17558THY    HP329412   3.715   1.350   2.937 -0.0446  0.5449  0.4383
17558THY    HP429413   3.804   1.492   2.899 -0.8746  2.1499 -1.3493
17558THY    CP329414   3.612   1.575   3.056  0.0606  0.3855 -0.1905
17558THY    HP529415   3.714   1.614   3.063 -0.1430  0.4375  0.3447
17558THY    HP629416   3.603   1.493   3.128 -0.6228  1.9343  1.2029
17558THY    HP729417   3.530   1.641   3.087  0.1547  1.4757 -0.5732
17558THY    CA329418   3.430   1.324   2.878  0.0401 -0.5758  0.6532
17558THY    HA329419   3.509   1.254   2.901  0.1919  2.8314  1.7791
17558THY    CA429420   3.300   1.267   2.843  0.5995 -0.0966 -0.6463
17558THY    HA429421   3.281   1.160   2.838  0.1251 -0.5185 -0.5465
17558THY    CA529422   3.197   1.352   2.818 -0.2489  0.0882 -0.2668
17558THY    CM129423   3.068   1.302   2.760 -0.1530 -0.5963  0.3939
17558THY    HM129424   3.052   1.196   2.785  0.4466 -0.1903  0.3890
17558THY    HM229425   3.063   1.305   2.651  0.1576 -0.6689 -0.8579
17558THY    HM329426   2.984   1.361   2.799 -0.2369 -1.2360  0.7028
17558THY    CA629427   3.218   1.489   2.834  0.7698 -0.0125 -0.2427
17558THY    HA629428   3.138   1.556   2.805 -2.3183  0.6359 -3.3193
17559THY      O29429   5.347   6.299   6.715  0.0696  0.2778 -0.1481
17559THY     HO29430   5.281   6.353   6.669  0.8144  0.3965  0.8875
17559THY    CA129431   5.414   6.385   6.799 -0.0866  0.3760 -0.1026
17559THY    CA229432   5.527   6.351   6.869 -0.0892 -0.1643 -0.4383
17559THY    CP129433   5.582   6.208   6.871 -0.0196 -0.4746 -0.5107
17559THY    HP129434   5.529   6.150   6.795 -0.1356 -0.4934 -0.3780
17559THY    CP229435   5.557   6.140   7.012 -0.0738  0.2520 -0.3244
17559THY    HP229436   5.455   6.156   7.047 -0.2625  0.0815 -1.1177
17559THY    HP329437   5.641   6.155   7.082  2.5957 -2.6232 -0.7799
17559THY    HP429438   5.561   6.035   6.981 -2.5109  0.0333 -0.3951
17559THY    CP329439   5.732   6.207   6.834 -0.7040 -0.0599  0.2391
17559THY    HP529440   5.795   6.253   6.911  0.3750 -0.3926 -0.6414
17559THY    HP629441   5.754   6.261   6.742 -2.0776 -0.2510  0.5119
17559THY    HP729442   5.758   6.101   6.824  0.4103 -0.0643  0.5012
17559THY    CA329443   5.576   6.447   6.950 -0.9081  0.3563 -0.5647
17559THY    HA329444   5.662   6.430   7.014  0.3908 -0.9725  0.8164
17559THY    CA429445   5.531   6.577   6.953  0.1300 -0.1620  0.1072
17559THY    HA429446   5.581   6.644   7.022 -0.3988 -0.4931  0.8517
17559THY    CA529447   5.421   6.613   6.889 -0.2881  0.7580  0.7731
17559THY    CM129448   5.383   6.761   6.872  0.2951 -0.6571 -0.5566
17559THY    HM129449   5.460   6.832   6.905  0.2079  2.7494 -1.8328
17559THY    HM229450   5.296   6.786   6.933  1.0998  0.6361 -0.7907
17559THY    HM329451   5.364   6.786   6.767  1.2855 -0.6016  0.5109
17559THY    CA629452   5.354   6.513   6.808 -0.1131 -0.2503  0.5557
17559THY    HA629453   5.271   6.545   6.746  0.4268 -1.4662 -0.3149
17560THY      O29454   2.810   1.948   4.069  0.1825 -0.1344 -0.3344
17560THY     HO29455   2.823   1.896   4.150  0.9156 -0.8764 -1.3591
17560THY    CA129456   2.883   2.066   4.086  0.9456  0.5357  0.5023
17560THY    CA229457   2.849   2.170   4.002 -0.1772  0.0646 -0.8893
17560THY    CP129458   2.751   2.159   3.889 -0.0166  0.4594  0.0224
17560THY    HP129459   2.762   2.062   3.839 -1.4559 -1.9513  1.0166
17560THY    CP229460   2.766   2.265   3.780 -0.6904  0.3594  0.3035
17560THY    HP229461   2.865   2.284   3.735 -1.7533 -2.2600  0.0581
17560THY    HP329462   2.728   2.353   3.832  0.2756  1.5133  0.0565
17560THY    HP429463   2.690   2.248   3.703 -0.0521 -0.0530 -0.7765
17560THY    CP329464   2.607   2.164   3.932  0.1716 -0.2815  0.3495
17560THY    HP529465   2.568   2.264   3.954  1.8140  1.7736  0.5955
17560THY    HP629466   2.590   2.117   4.030  0.7272  0.6236  1.9666
17560THY    HP729467   2.548   2.117   3.852  1.4960 -0.3340 -1.3018
17560THY    CA329468   2.922   2.291   4.026 -0.3790  0.4797  0.3187
17560THY    HA329469   2.910   2.383   3.970  0.3659 -2.5455 -1.2785
17560THY    CA429470   3.019   2.295   4.133 -0.4202  0.0950  0.8027
17560THY    HA429471   3.064   2.390   4.163  0.2270  0.6340  0.3392
17560THY    CA529472   3.031   2.187   4.218  0.5763  0.9692  0.6481
17560THY    CM129473   3.111   2.196   4.342  0.2412 -0.8557 -0.1485
17560THY    HM129474   3.111   2.294   4.392  1.2368  0.4195 -0.7724
17560THY    HM229475   3.214   2.190   4.305 -0.3271 -2.3845 -1.0852
17560THY    HM329476   3.083   2.123   4.419  0.0838 -0.4405  0.3326
17560THY    CA629477   2.975   2.068   4.185  0.8233  0.4273  0.2228
17560THY    HA629478   2.993   1.989   4.257  1.2412  2.5961  2.1838
17561THY      O29479   3.144   4.121   4.161  0.0682 -0.7070  0.5531
17561THY     HO29480   3.158   4.062   4.086  3.8920 -0.2084  0.6270
17561THY    CA129481   3.201   4.058   4.264  0.1680 -0.4496  0.3459
17561THY    CA229482   3.203   4.123   4.394 -0.3509  0.0720 -0.0521
17561THY    CP129483   3.144   4.264   4.406  0.3323 -0.1224 -0.5786
17561THY    HP129484   3.110   4.305   4.310  0.5591 -0.0754 -0.2798
17561THY    CP229485   3.252   4.367   4.457 -0.1099  0.6826  0.1318
17561THY    HP229486   3.305   4.320   4.540 -1.9148  1.3900 -0.7755
17561THY    HP329487   3.216   4.466   4.487  0.2412 -0.2126  0.5359
17561THY    HP429488   3.323   4.390   4.376  0.0415  0.9467  0.6010
17561THY    CP329489   3.026   4.251   4.507 -0.4719  0.2513 -0.1072
17561THY    HP529490   3.064   4.204   4.598  0.4417 -1.8706 -3.8928
17561THY    HP629491   2.936   4.210   4.461  0.7326  0.1902 -2.8964
17561THY    HP729492   3.001   4.356   4.531  0.2709 -0.2925  0.2019
17561THY    CA329493   3.279   4.054   4.493  0.2304 -0.1040 -0.2584
17561THY    HA329494   3.284   4.105   4.589 -0.3721 -0.7819  1.1350
17561THY    CA429495   3.330   3.930   4.472 -0.5261 -0.2406  0.3591
17561THY    HA429496   3.382   3.878   4.552  1.7456 -1.6710  0.2946
17561THY    CA529497   3.325   3.870   4.345 -0.2238 -0.0823  0.6756
17561THY    CM129498   3.383   3.731   4.320  0.0962 -0.2403 -0.6803
17561THY    HM129499   3.308   3.657   4.292 -0.8677 -1.1538  0.6005
17561THY    HM229500   3.435   3.688   4.407 -0.6732  1.0594  0.8949
17561THY    HM329501   3.456   3.730   4.238 -0.7997 -1.0922 -3.2486
17561THY    CA629502   3.265   3.940   4.241  0.0225 -0.8586  0.4508
17561THY    HA629503   3.265   3.893   4.144 -1.9841 -0.5386 -0.3075
17562THY      O29504   3.068   0.834   7.791  0.3418  0.0581 -0.3142
17562THY     HO29505   3.062   0.858   7.886  0.9640 -0.1008  0.5290
17562THY    CA129506   2.960   0.894   7.725 -0.7958  0.5489 -0.2206
17562THY    CA229507   2.883   0.826   7.626 -0.7028 -0.6853  0.2750
17562THY    CP129508   2.937   0.697   7.558  0.0282 -0.1426  0.0297
17562THY    HP129509   3.012   0.657   7.629  0.7174 -2.4410 -3.1337
17562THY    CP229510   3.001   0.704   7.415  0.6737 -0.1176  0.3299
17562THY    HP229511   3.062   0.614   7.398 -0.8444  0.8690 -0.9579
17562THY    HP329512   3.065   0.792   7.404  0.3630  0.3027  0.6146
17562THY    HP429513   2.925   0.713   7.336  0.4801 -0.5918 -3.5336
17562THY    CP329514   2.834   0.588   7.562  0.2492 -0.4427  0.7899
17562THY    HP529515   2.741   0.584   7.504 -0.5999  0.8638  0.8501
17562THY    HP629516   2.781   0.575   7.657 -2.5997 -1.9795  0.1362
17562THY    HP729517   2.889   0.496   7.539 -1.1450  0.4439 -0.3001
17562THY    CA329518   2.763   0.883   7.576 -0.0015 -0.3373 -0.3858
17562THY    HA329519   2.693   0.840   7.505 -1.6200  0.7441  0.3701
17562THY    CA429520   2.732   1.012   7.624  0.2927  0.6082  0.2192
17562THY    HA429521   2.635   1.048   7.590  0.7436 -2.8355 -1.4442
17562THY    CA529522   2.798   1.070   7.732  0.4061  0.1578  0.0932
17562THY    CM129523   2.754   1.193   7.794  0.0964 -0.3684 -0.2167
17562THY    HM129524   2.658   1.224   7.752 -0.5693  0.3293 -1.2988
17562THY    HM229525   2.832   1.270   7.786  0.2397 -1.2613 -0.4367
17562THY    HM329526   2.736   1.168   7.899  1.5098 -0.5875 -2.4349
17562THY    CA629527   2.911   1.011   7.780 -0.8136  0.1327 -0.0817
17562THY    HA629528   2.959   1.046   7.871  0.0648  0.3069 -1.6459
17563THY      O29529   1.414   2.914   5.354  0.3281  0.1871  0.0703
17563THY     HO29530   1.496   2.966   5.365 -0.0686 -0.2438  0.7941
17563THY    CA129531   1.432   2.805   5.275 -0.0055 -0.1100  0.3566
17563THY    CA229532   1.381   2.680   5.314 -0.7079 -0.6032  0.0405
17563THY    CP129533   1.290   2.652   5.436 -0.6956  0.1606 -0.3992
17563THY    HP129534   1.335   2.706   5.520  1.1911 -0.8289 -0.3450
17563THY    CP229535   1.301   2.508   5.491 -0.1020  0.2361 -0.3920
17563THY    HP229536   1.408   2.491   5.508  0.2815  0.4454  1.8572
17563THY    HP329537   1.273   2.449   5.402  2.0993 -3.3247  3.3883
17563THY    HP429538   1.230   2.492   5.572  1.4224  2.0185  1.3535
17563THY    CP329539   1.150   2.696   5.400  0.2205 -0.1846 -0.4135
17563THY    HP529540   1.153   2.806   5.397  0.7877 -0.3742 -0.4335
17563THY    HP629541   1.069   2.675   5.471 -1.0365 -1.2672  0.6358
17563THY    HP729542   1.119   2.670   5.299 -0.0953 -0.2133  0.0618
17563THY    CA329543   1.413   2.573   5.218 -0.1744 -0.2520  0.3639
17563THY    HA329544   1.362   2.478   5.232  1.6637 -0.4782 -0.6940
17563THY    CA429545   1.504   2.584   5.118 -0.5129 -0.9152  0.2578
17563THY    HA429546   1.529   2.497   5.057  1.6959  1.0390 -0.5821
17563THY    CA529547   1.562   2.704   5.097 -0.3305 -0.0378 -0.1889
17563THY    CM129548   1.677   2.708   4.998  0.3382  0.4550 -0.0651
17563THY    HM129549   1.759   2.642   5.030 -0.0981  2.6228  0.3461
17563THY    HM229550   1.722   2.808   5.002  1.0091 -0.3561 -0.3243
17563THY    HM329551   1.652   2.671   4.898  1.2156  0.5080 -0.8486
17563THY    CA629552   1.523   2.817   5.175  0.2526 -0.1085  1.0267
17563THY    HA629553   1.566   2.916   5.157  2.0280  0.1211  0.3469
17564THY      O29554   9.033   0.435   3.438  0.0966  0.3999 -0.0115
17564THY     HO29555   8.996   0.345   3.447  0.2010  0.3329 -0.0613
17564THY    CA129556   8.926   0.516   3.458 -0.0639 -0.0764 -0.0967
17564THY    CA229557   8.929   0.650   3.470 -0.0988 -0.0990 -0.0643
17564THY    CP129558   9.063   0.714   3.487  0.4943 -0.1300  0.3509
17564THY    HP129559   9.132   0.649   3.542  0.6188 -0.0170  0.5761
17564THY    CP229560   9.053   0.826   3.578  0.2956 -0.1512 -0.7956
17564THY    HP229561   8.986   0.819   3.664  0.0581 -0.4124 -1.8173
17564THY    HP329562   9.018   0.915   3.524 -1.9420  2.7964  0.2578
17564THY    HP429563   9.150   0.856   3.619  0.5477 -1.9835  1.1649
17564THY    CP329564   9.118   0.754   3.350  0.8190 -0.2061 -0.1789
17564THY    HP529565   9.154   0.670   3.289  0.7601 -0.9817  0.3534
17564THY    HP629566   9.196   0.829   3.367 -0.7931 -0.1127  1.5560
17564THY    HP729567   9.041   0.813   3.300  0.0917 -0.7296 -1.5195
17564THY    CA329568   8.806   0.723   3.476  0.1189  0.2934 -0.4945
17564THY    HA329569   8.807   0.830   3.494 -1.2008  1.0629 -0.5880
17564THY    CA429570   8.684   0.660   3.453  0.0835 -0.0641  0.1870
17564THY    HA429571   8.583   0.701   3.449  0.0394 -1.9404 -0.0324
17564THY    CA529572   8.686   0.522   3.436  0.2985 -0.1292 -0.1567
17564THY    CM129573   8.565   0.446   3.438  0.3014 -0.2841  0.7090
17564THY    HM129574   8.483   0.499   3.489  0.3387  1.0329 -0.4577
17564THY    HM229575   8.571   0.357   3.502 -2.1426  2.7412  2.5155
17564THY    HM329576   8.523   0.425   3.338  0.4479 -0.5938  1.8447
17564THY    CA629577   8.807   0.449   3.452 -0.0453 -0.3166 -0.0909
17564THY    HA629578   8.803   0.340   3.456 -0.6920  0.6334 -0.0464
17565THY      O29579   0.557   1.270   3.678 -0.2180 -0.5852  0.0928
17565THY     HO29580   0.554   1.211   3.601  1.4809  0.9834 -2.2693
17565THY    CA129581   0.620   1.194   3.757  0.2559 -0.4063  0.3935
17565THY    CA229582   0.652   1.229   3.892 -0.0637  0.5238 -0.1501
17565THY    CP129583   0.609   1.362   3.945 -0.5220  0.3811  0.5005
17565THY    HP129584   0.641   1.431   3.867  1.7463  3.8403  3.7599
17565THY    CP229585   0.701   1.413   4.067 -0.2432 -0.0728  0.6161
17565THY    HP229586   0.670   1.365   4.160  1.8670  0.5697  0.4055
17565THY    HP329587   0.695   1.522   4.078 -0.0712  1.7036  0.4786
17565THY    HP429588   0.808   1.393   4.049 -0.3315 -1.2164  1.0977
17565THY    CP329589   0.457   1.370   3.989  0.3940 -0.3584  0.0032
17565THY    HP529590   0.383   1.364   3.909 -1.0559  0.8523  0.8911
17565THY    HP629591   0.438   1.470   4.031 -1.0754 -0.9323 -0.0216
17565THY    HP729592   0.427   1.300   4.067 -3.4337 -2.7613 -1.3273
17565THY    CA329593   0.745   1.149   3.967  0.2173 -0.2342 -0.1228
17565THY    HA329594   0.778   1.174   4.067  2.5495 -1.0891  0.4692
17565THY    CA429595   0.788   1.038   3.902 -0.2275  0.2575 -0.5757
17565THY    HA429596   0.863   0.974   3.949  1.3487 -2.2804 -0.7351
17565THY    CA529597   0.744   1.002   3.772 -0.4000 -0.4963  0.2848
17565THY    CM129598   0.778   0.866   3.718  0.0769  0.8726  0.4860
17565THY    HM129599   0.723   0.847   3.625 -1.1021  1.5014  0.6830
17565THY    HM229600   0.735   0.803   3.797 -0.8419  0.8174  1.0180
17565THY    HM329601   0.887   0.858   3.708 -0.1794 -0.6784 -2.1302
17565THY    CA629602   0.662   1.075   3.699 -0.5324  0.6859 -0.1914
17565THY    HA629603   0.645   1.042   3.597  0.8176  0.6477 -0.8167
17566THY      O29604   8.968   2.064   6.013 -0.2162  0.7876  0.4793
17566THY     HO29605   9.053   2.085   5.970 -1.1036 -0.5079  1.6151
17566THY    CA129606   8.887   2.081   5.903 -0.3842 -0.6360 -0.2428
17566THY    CA229607   8.751   2.051   5.911 -0.3300  0.2694 -0.2055
17566THY    CP129608   8.689   1.976   6.029 -0.5175 -0.3995 -0.4234
17566THY    HP129609   8.748   1.999   6.119 -1.7920  0.2230  0.5752
17566THY    CP229610   8.697   1.825   5.995 -0.6504  0.0406 -0.9043
17566THY    HP229611   8.644   1.808   5.901 -0.3095 -1.1924  3.6829
17566THY    HP329612   8.661   1.760   6.076 -1.3678  0.7628  0.3410
17566THY    HP429613   8.803   1.806   5.974 -0.4485 -0.1577  0.3824
17566THY    CP329614   8.537   2.011   6.060 -0.6453  0.6464  0.5987
17566THY    HP529615   8.517   2.116   6.088 -0.6248 -0.9439  1.0441
17566THY    HP629616   8.500   1.939   6.134 -0.4775 -1.3070 -1.5871
17566THY    HP729617   8.470   1.988   5.977 -2.0235  1.6259  0.9668
17566THY    CA329618   8.672   2.083   5.797  0.3179  0.0951  0.4580
17566THY    HA329619   8.566   2.059   5.799  0.2543 -2.2382  0.3855
17566THY    CA429620   8.722   2.151   5.683 -0.0733 -0.2513 -0.8046
17566THY    HA429621   8.655   2.167   5.599 -3.3481  2.3834  0.4690
17566THY    CA529622   8.857   2.188   5.687  0.3033  0.0517  0.3398
17566THY    CM129623   8.912   2.253   5.567 -0.3680 -0.2247  0.5366
17566THY    HM129624   8.918   2.358   5.597 -0.2128  4.5536 -0.6139
17566THY    HM229625   8.846   2.251   5.480 -1.9936  0.9188  1.8351
17566THY    HM329626   9.009   2.214   5.534  0.9840  3.9726 -0.1936
17566THY    CA629627   8.944   2.152   5.791  0.1515  0.1462 -0.2386
17566THY    HA629628   9.047   2.186   5.797 -0.3718  0.9981  1.3224
17567THY      O29629   6.145   8.951   7.089  0.0644 -0.6257 -0.1354
17567THY     HO29630   6.238   8.951   7.062  1.0251  2.0385  2.9809
17567THY    CA129631   6.084   8.852   7.024 -0.3275  0.1004 -0.9298
17567THY    CA229632   5.990   8.762   7.075 -0.5229  0.1934 -1.2299
17567THY    CP129633   5.925   8.797   7.207  0.0836  0.0296 -0.4319
17567THY    HP129634   5.965   8.886   7.256  0.9876  0.7392 -1.2051
17567THY    CP229635   5.937   8.688   7.304 -0.3060 -0.2106 -0.4247
17567THY    HP229636   5.928   8.590   7.254 -1.1322  1.0110 -0.9993
17567THY    HP329637   5.878   8.699   7.396  2.0804  1.1397  2.4721
17567THY    HP429638   6.041   8.700   7.334 -0.3277 -0.8151  1.6900
17567THY    CP329639   5.775   8.829   7.178  0.0108  0.6769  0.5044
17567THY    HP529640   5.755   8.902   7.098 -1.5756  1.6437  1.1952
17567THY    HP629641   5.732   8.863   7.273  1.1912  1.2460  0.4636
17567THY    HP729642   5.723   8.737   7.148 -0.7705  0.1183  1.1196
17567THY    CA329643   5.929   8.663   7.001  0.1569  0.0954 -0.0714
17567THY    HA329644   5.859   8.598   7.052  1.0223  3.1475  1.2266
17567THY    CA429645   5.967   8.643   6.867  0.9899  0.4980 -0.0723
17567THY    HA429646   5.926   8.561   6.809  0.4565  0.0819  0.4825
17567THY    CA529647   6.071   8.722   6.816 -0.3123 -0.3422  0.1060
17567THY    CM129648   6.109   8.691   6.681 -0.8276  0.7657  0.4333
17567THY    HM129649   6.032   8.712   6.606  2.4422 -3.4600 -1.3430
17567THY    HM229650   6.128   8.584   6.672  0.9907  3.0775  0.4757
17567THY    HM329651   6.198   8.742   6.642  0.5585  0.2996 -2.1662
17567THY    CA629652   6.134   8.822   6.892 -0.1423 -0.2601  0.2926
17567THY    HA629653   6.219   8.873   6.847  1.3174  0.8077 -1.1002
17568THY      O29654   5.254   1.803   3.213 -0.7215  0.0412 -0.1059
17568THY     HO29655   5.345   1.768   3.217 -0.2543 -0.7024  0.9660
17568THY    CA129656   5.265   1.906   3.127 -0.4053  0.4297  0.3101
17568THY    CA229657   5.249   2.037   3.169  0.8073 -0.8491 -0.6524
17568THY    CP129658   5.211   2.076   3.314  0.3821  0.1048  0.1873
17568THY    HP129659   5.174   1.991   3.372  1.6923  1.2313  0.3444
17568THY    CP229660   5.086   2.165   3.313  0.2405  0.2405 -0.3117
17568THY    HP229661   4.999   2.115   3.267 -1.5204  0.7089  2.1568
17568THY    HP329662   5.107   2.259   3.261 -0.5168 -0.6858 -0.6376
17568THY    HP429663   5.053   2.198   3.412  0.6787  1.3696 -2.9722
17568THY    CP329664   5.316   2.140   3.395 -0.7557 -0.5782  0.3997
17568THY    HP529665   5.301   2.149   3.503 -2.8644 -0.7729 -0.2687
17568THY    HP629666   5.332   2.239   3.352 -1.4329  0.2579  0.8839
17568THY    HP729667   5.411   2.087   3.380 -0.9478  1.6800 -0.6953
17568THY    CA329668   5.257   2.136   3.071 -0.2149  0.8072 -0.0585
17568THY    HA329669   5.243   2.241   3.094 -3.1746 -2.4600  0.4636
17568THY    CA429670   5.266   2.100   2.935 -0.0491 -0.2528  0.7073
17568THY    HA429671   5.276   2.175   2.857 -0.1871 -1.0207 -0.0592
17568THY    CA529672   5.276   1.960   2.902  0.1780  0.2028  0.5986
17568THY    CM129673   5.307   1.912   2.763  0.4700 -0.3618 -0.0768
17568THY    HM129674   5.258   1.815   2.746 -3.1413  1.0735  1.3229
17568THY    HM229675   5.415   1.915   2.744  0.7187  0.9619  0.2137
17568THY    HM329676   5.250   1.983   2.702 -1.1998  0.4877 -0.6218
17568THY    CA629677   5.278   1.863   2.999  0.1537 -1.0665  0.4781
17568THY    HA629678   5.269   1.758   2.970  0.5432  2.3473 -0.5961
17569THY      O29679   1.643   5.908   6.595 -0.1779  0.3679  0.0934
17569THY     HO29680   1.664   5.854   6.517 -2.9087 -1.2178  1.0839
17569THY    CA129681   1.605   6.029   6.549 -1.0095  0.3210  1.1664
17569THY    CA229682   1.568   6.128   6.633 -0.3606 -0.3427 -0.2614
17569THY    CP129683   1.549   6.115   6.782 -0.6482 -0.8534  0.3452
17569THY    HP129684   1.590   6.017   6.808 -0.1221 -1.2107  0.4633
17569THY    CP229685   1.411   6.120   6.833 -0.0427  0.4985  0.3424
17569THY    HP229686   1.358   6.204   6.786 -0.2397  0.8233  0.4029
17569THY    HP329687   1.407   6.120   6.943 -0.1674  0.5265 -1.4347
17569THY    HP429688   1.357   6.034   6.791 -1.3151  2.1349  0.2795
17569THY    CP329689   1.650   6.208   6.857  0.2215  0.1506  0.2854
17569THY    HP529690   1.673   6.176   6.959  0.3256 -0.6873 -2.5472
17569THY    HP629691   1.615   6.312   6.863  1.1344  1.8325  0.5279
17569THY    HP729692   1.747   6.209   6.808  0.0612 -0.1854  1.5012
17569THY    CA329693   1.535   6.254   6.583 -0.2171  0.3578 -0.2391
17569THY    HA329694   1.502   6.338   6.643  0.3736  2.9900 -1.7752
17569THY    CA429695   1.529   6.267   6.447 -0.0919  0.1704  0.3179
17569THY    HA429696   1.508   6.363   6.401 -3.5025  1.5619  0.3479
17569THY    CA529697   1.550   6.161   6.360 -0.0783  0.1902 -0.7554
17569THY    CM129698   1.534   6.179   6.212 -0.7382  0.2819 -0.1208
17569THY    HM129699   1.611   6.248   6.177  2.2387 -1.5941 -4.0229
17569THY    HM229700   1.432   6.219   6.198  0.2911  1.1676  3.1031
17569THY    HM329701   1.545   6.083   6.160 -1.6459  2.2386 -1.3484
17569THY    CA629702   1.605   6.048   6.412  0.0244 -0.1796 -0.3617
17569THY    HA629703   1.633   5.968   6.344  2.8630  0.5547 -0.1105
17570THY      O29704   5.174   6.789   5.736  0.7278 -0.2942  0.0255
17570THY     HO29705   5.146   6.877   5.766 -1.4499 -3.2289  0.4839
17570THY    CA129706   5.102   6.700   5.797 -0.0813  0.2432 -0.0541
17570THY    CA229707   5.125   6.560   5.794  0.3618  0.5673  0.9636
17570THY    CP129708   5.256   6.503   5.741  0.2432  0.3718  0.8010
17570THY    HP129709   5.305   6.575   5.675 -2.4648 -1.4974  1.0736
17570THY    CP229710   5.249   6.368   5.669  0.0585 -0.1961  0.7332
17570THY    HP229711   5.153   6.342   5.622 -0.6753  1.3244  0.5530
17570THY    HP329712   5.273   6.287   5.740 -1.5382 -0.7196 -0.2508
17570THY    HP429713   5.326   6.350   5.594 -0.6853 -0.2468 -3.1061
17570THY    CP329714   5.343   6.492   5.865  0.9373 -0.2466  0.7963
17570THY    HP529715   5.288   6.437   5.942 -2.4150 -1.4033  2.2678
17570THY    HP629716   5.355   6.592   5.905  3.5272 -0.7569  0.7570
17570THY    HP729717   5.440   6.441   5.852  0.9072  2.0158  0.0748
17570THY    CA329718   5.033   6.468   5.853 -0.2146 -0.4112  0.1196
17570THY    HA329719   5.056   6.363   5.863 -0.9801  0.3198  0.0047
17570THY    CA429720   4.915   6.523   5.913  0.5138  0.3161  0.8712
17570THY    HA429721   4.854   6.452   5.968 -0.8322 -2.3443 -0.1820
17570THY    CA529722   4.884   6.658   5.902  0.0089  0.5408 -0.6344
17570THY    CM129723   4.758   6.704   5.967  0.2280 -0.1583  0.0864
17570THY    HM129724   4.766   6.694   6.076  1.3850 -0.2178  0.1852
17570THY    HM229725   4.671   6.645   5.937 -0.0315  1.7584 -0.5975
17570THY    HM329726   4.733   6.807   5.939  0.2520 -0.8325 -0.0893
17570THY    CA629727   4.977   6.747   5.838  0.2192  0.7012  0.5482
17570THY    HA629728   4.944   6.851   5.834 -2.1976 -1.8759 -0.1940
17571THY      O29729   8.774   1.407   5.706 -0.2044 -0.3029 -0.0723
17571THY     HO29730   8.804   1.443   5.621  0.5721 -0.3884 -0.9003
17571THY    CA129731   8.779   1.274   5.676 -0.1205  0.4635 -0.2315
17571THY    CA229732   8.730   1.177   5.774 -0.1016 -0.4222  0.0417
17571THY    CP129733   8.685   1.223   5.913  0.1444  0.5359 -0.4876
17571THY    HP129734   8.676   1.332   5.925 -1.1253 -0.2309 -0.4943
17571THY    CP229735   8.786   1.173   6.023  0.3915 -0.4336  0.1493
17571THY    HP229736   8.886   1.214   6.002  0.3306 -3.4756 -0.9829
17571THY    HP329737   8.794   1.064   6.019  0.8135 -1.6431  0.2072
17571THY    HP429738   8.757   1.187   6.128  0.1822 -0.3306 -0.9602
17571THY    CP329739   8.540   1.175   5.943  0.4511 -0.0194 -0.2736
17571THY    HP529740   8.529   1.066   5.937 -2.2801 -1.5957 -0.0041
17571THY    HP629741   8.473   1.220   5.869 -1.7604  3.2226  2.3329
17571THY    HP729742   8.502   1.217   6.037 -0.5973 -0.2763 -0.6208
17571THY    CA329743   8.735   1.042   5.744 -0.0122 -0.3569 -0.3252
17571THY    HA329744   8.699   0.970   5.818 -1.1703  0.5684  1.1268
17571THY    CA429745   8.784   0.997   5.616 -0.2551  0.3337 -0.1390
17571THY    HA429746   8.789   0.893   5.588 -1.4655 -2.2216  0.3971
17571THY    CA529747   8.827   1.092   5.525  0.5338  0.2743  0.0174
17571THY    CM129748   8.866   1.057   5.384  0.8149  0.4951 -0.2098
17571THY    HM129749   8.817   0.963   5.356 -1.2907  0.5700  0.8035
17571THY    HM229750   8.973   1.057   5.360  0.5083 -0.9793 -1.0095
17571THY    HM329751   8.819   1.122   5.309  1.1885 -0.8372 -1.4182
17571THY    CA629752   8.829   1.229   5.556  0.7462  0.5771  0.3689
17571THY    HA629753   8.847   1.297   5.473 -0.3172 -0.2047 -0.2686
17572THY      O29754   8.916   5.752   4.239  0.1232  0.0001 -0.3533
17572THY     HO29755   8.979   5.801   4.184  0.2158  2.6920  2.9187
17572THY    CA129756   8.800   5.825   4.231 -0.1390 -0.1995  0.5422
17572THY    CA229757   8.681   5.775   4.280  1.6073 -0.4395 -0.0104
17572THY    CP129758   8.671   5.652   4.373  0.2782  0.3942 -0.4580
17572THY    HP129759   8.773   5.615   4.388  1.6854 -0.7550  2.6204
17572THY    CP229760   8.588   5.539   4.309  0.0684  0.1757  0.4547
17572THY    HP229761   8.481   5.561   4.309  0.2958 -0.9486  1.6577
17572THY    HP329762   8.619   5.444   4.355  1.4466 -0.3928  0.6019
17572THY    HP429763   8.611   5.533   4.202 -2.5589 -0.5896  2.5737
17572THY    CP329764   8.615   5.686   4.512 -0.0313  0.8118  0.6314
17572THY    HP529765   8.529   5.754   4.519 -0.4319 -2.8613  0.6924
17572THY    HP629766   8.702   5.728   4.563 -0.3955  2.4801 -0.5253
17572THY    HP729767   8.589   5.595   4.568 -0.5258 -1.6613 -0.8377
17572THY    CA329768   8.567   5.853   4.250  0.6025 -0.6935 -0.5276
17572THY    HA329769   8.472   5.821   4.291  0.5811 -0.9114 -0.7399
17572THY    CA429770   8.578   5.982   4.186  0.2626 -0.3928 -0.0593
17572THY    HA429771   8.492   6.049   4.182  0.3521  0.5490  0.1317
17572THY    CA529772   8.700   6.023   4.134 -0.4507 -1.2700 -0.0092
17572THY    CM129773   8.708   6.153   4.056  0.6050  0.5179 -0.0162
17572THY    HM129774   8.735   6.130   3.952  1.7313  0.7772  0.0732
17572THY    HM229775   8.790   6.211   4.100 -0.2683 -0.6758  2.2273
17572THY    HM329776   8.616   6.212   4.056  1.7052 -1.0078  1.8058
17572THY    CA629777   8.813   5.943   4.155  0.7428  0.0216  0.2368
17572THY    HA629778   8.912   5.970   4.119  0.4149 -3.0079 -2.0114
17573THY      O29779   4.447   1.247   4.508 -0.2325  0.2019  0.0788
17573THY     HO29780   4.539   1.255   4.539 -0.1446  0.2968 -1.0451
17573THY    CA129781   4.438   1.310   4.387 -0.0363 -0.8189 -0.2735
17573THY    CA229782   4.336   1.279   4.292  0.3898  0.1937 -0.0124
17573THY    CP129783   4.240   1.162   4.316  0.8019  0.4378  0.2464
17573THY    HP129784   4.250   1.135   4.422  1.7212 -0.5435 -3.9918
17573THY    CP229785   4.282   1.047   4.228  0.3383  0.4591  0.3944
17573THY    HP229786   4.267   1.084   4.126 -0.5656  1.6137  3.4494
17573THY    HP329787   4.212   0.963   4.231 -1.7565 -1.5400  1.9463
17573THY    HP429788   4.382   1.011   4.255  0.0561  2.0723  0.7551
17573THY    CP329789   4.087   1.199   4.300  0.2859  0.2528  0.1416
17573THY    HP529790   4.065   1.226   4.196  1.5927  0.6634  3.1908
17573THY    HP629791   4.065   1.293   4.351 -2.8563 -1.2135  0.3324
17573THY    HP729792   4.020   1.125   4.344 -0.5202  1.4808  1.5547
17573THY    CA329793   4.331   1.349   4.169 -0.3806 -0.1331 -0.4098
17573THY    HA329794   4.254   1.316   4.100 -0.1262 -0.9301  0.5887
17573THY    CA429795   4.416   1.461   4.148 -0.1619  0.6223  0.7942
17573THY    HA429796   4.413   1.515   4.054  0.9154 -0.2303 -0.5530
17573THY    CA529797   4.513   1.491   4.249  0.2596  0.2939 -0.0787
17573THY    CM129798   4.611   1.608   4.237 -0.2515  0.0805  0.0730
17573THY    HM129799   4.551   1.699   4.244  1.2300  1.7731  0.9891
17573THY    HM229800   4.648   1.610   4.134  2.5833  0.9760 -0.8607
17573THY    HM329801   4.694   1.613   4.308 -0.4609  0.6852 -3.2128
17573THY    CA629802   4.525   1.420   4.368  0.9826 -0.0228 -0.5970
17573THY    HA629803   4.596   1.453   4.444 -0.5844  1.8266 -1.2744
17574THY      O29804   8.859   3.871   7.627  0.2188 -0.0505  0.4314
17574THY     HO29805   8.776   3.885   7.579  1.3550 -1.5549  2.8354
17574THY    CA129806   8.943   3.826   7.522  1.0021 -0.2503  0.2496
17574THY    CA229807   9.056   3.744   7.537  0.1084 -0.3642  0.2558
17574THY    CP129808   9.089   3.684   7.667 -0.6554 -0.2946 -1.2752
17574THY    HP129809   9.008   3.711   7.736  0.5753  1.0982 -1.0040
17574THY    CP229810   9.213   3.745   7.730 -0.0342  0.3412  0.2716
17574THY    HP229811   9.303   3.707   7.680 -1.5127 -1.4713 -0.9973
17574THY    HP329812   9.223   3.719   7.836 -0.9987  0.4733  0.3894
17574THY    HP429813   9.210   3.855   7.739  0.4550  0.8500  0.2525
17574THY    CP329814   9.103   3.534   7.680 -0.7062  0.0580 -0.1224
17574THY    HP529815   9.095   3.503   7.785 -1.3754  0.3034  0.8608
17574THY    HP629816   9.197   3.502   7.633 -1.4077 -0.5075 -1.4580
17574THY    HP729817   9.026   3.486   7.619  0.5593 -2.4088  0.7869
17574THY    CA329818   9.124   3.709   7.421  0.0135 -0.1295 -0.5845
17574THY    HA329819   9.188   3.622   7.430 -1.0835  0.1228 -1.3746
17574THY    CA429820   9.091   3.765   7.295  0.0209 -0.4825 -0.0924
17574THY    HA429821   9.149   3.738   7.207 -0.6234 -1.1987  0.7884
17574THY    CA529822   8.980   3.840   7.285  0.4467  0.2312  0.5451
17574THY    CM129823   8.933   3.888   7.155 -0.2889  0.9695 -1.2479
17574THY    HM129824   8.828   3.861   7.139 -0.4316  1.4245 -0.9596
17574THY    HM229825   8.994   3.841   7.076  1.0880  1.6159 -0.5937
17574THY    HM329826   8.941   3.997   7.149 -2.0014  1.8543 -1.0416
17574THY    CA629827   8.906   3.867   7.397  0.2592 -0.1798 -0.3052
17574THY    HA629828   8.828   3.942   7.385  1.5060 -1.5528  0.8197
17575THY      O29829   8.210   2.026   1.876  0.3793 -0.0436 -0.3611
17575THY     HO29830   8.238   2.119   1.884  0.0378 -0.4157 -0.2244
17575THY    CA129831   8.231   1.971   2.001  0.6126 -0.2420  0.1752
17575THY    CA229832   8.163   1.860   2.058  0.5398 -0.5779  0.3437
17575THY    CP129833   8.058   1.779   1.979 -0.5645  0.1486  0.1755
17575THY    HP129834   8.055   1.818   1.877  3.4980  0.2455  1.1634
17575THY    CP229835   7.915   1.791   2.048 -0.1226  0.6210  0.2786
17575THY    HP229836   7.829   1.759   1.989  1.1732 -0.7751 -0.7471
17575THY    HP329837   7.902   1.899   2.065 -3.2632  1.5470 -0.1472
17575THY    HP429838   7.912   1.749   2.149 -1.1181 -0.9032 -3.7450
17575THY    CP329839   8.113   1.638   1.949  0.3279 -0.4331  0.1258
17575THY    HP529840   8.116   1.569   2.034  0.6953 -0.2886  0.3197
17575THY    HP629841   8.216   1.637   1.910  0.6165  0.0562 -3.2459
17575THY    HP729842   8.042   1.587   1.883 -0.6125  0.3642  0.3756
17575THY    CA329843   8.196   1.807   2.187 -0.2268  0.5205  0.1386
17575THY    HA329844   8.156   1.711   2.218 -0.3465  1.4570  0.4839
17575THY    CA429845   8.290   1.878   2.264 -0.6001  1.2179 -0.6133
17575THY    HA429846   8.317   1.836   2.361 -1.3549  0.3277 -3.3457
17575THY    CA529847   8.365   1.981   2.208 -0.1356 -0.1537  1.1744
17575THY    CM129848   8.475   2.044   2.292  0.1914 -0.4935  0.2842
17575THY    HM129849   8.435   2.059   2.392  3.4676  0.8424  1.0819
17575THY    HM229850   8.498   2.146   2.259  1.4918 -1.5366 -0.3100
17575THY    HM329851   8.563   1.979   2.295  0.1386 -2.0570  0.1020
17575THY    CA629852   8.335   2.023   2.080 -0.8960 -0.0230 -0.6637
17575THY    HA629853   8.385   2.110   2.038 -1.1167 -1.1557 -1.0676
17576THY      O29854   3.595   8.386   2.641  0.4815  0.0762 -0.2334
17576THY     HO29855   3.639   8.413   2.558 -1.3943 -1.0535 -0.4129
17576THY    CA129856   3.598   8.493   2.727  0.2829 -0.5986 -0.2104
17576THY    CA229857   3.495   8.509   2.820  1.8847 -0.5443 -0.0636
17576THY    CP129858   3.378   8.407   2.851 -0.1577  0.4639 -0.3895
17576THY    HP129859   3.369   8.347   2.760 -1.9516  1.5524 -1.8341
17576THY    CP229860   3.243   8.475   2.882 -0.2226  0.0303  0.0241
17576THY    HP229861   3.206   8.526   2.793 -0.9337 -0.7658 -1.7932
17576THY    HP329862   3.246   8.538   2.972  0.5785 -0.4079  0.6247
17576THY    HP429863   3.175   8.391   2.899 -0.8437 -1.7037  0.1401
17576THY    CP329864   3.412   8.326   2.974  0.6940  0.7038  0.5264
17576THY    HP529865   3.498   8.261   2.954  0.1537 -0.4974  0.1520
17576THY    HP629866   3.330   8.262   3.008  0.4517 -0.1978  0.3343
17576THY    HP729867   3.447   8.400   3.047  2.1783  0.6544 -0.0802
17576THY    CA329868   3.500   8.622   2.900  0.1025 -0.0783  0.1131
17576THY    HA329869   3.430   8.629   2.982  1.6171  1.5044 -2.0402
17576THY    CA429870   3.589   8.723   2.887 -0.5422 -0.6551 -0.0670
17576THY    HA429871   3.588   8.810   2.952  1.5838 -2.0650  1.1173
17576THY    CA529872   3.683   8.711   2.785 -0.5104 -0.3186 -0.1521
17576THY    CM129873   3.792   8.813   2.756 -0.2641 -0.4432 -0.1733
17576THY    HM129874   3.894   8.774   2.752  2.0047 -0.8029  5.1018
17576THY    HM229875   3.786   8.896   2.827  2.8003 -0.5983  0.2777
17576THY    HM329876   3.780   8.843   2.651 -3.0420 -0.4866 -1.0677
17576THY    CA629877   3.696   8.587   2.713  0.0930  0.5071  0.1872
17576THY    HA629878   3.772   8.578   2.636  1.3556  1.6044  1.0788
17577THY      O29879   1.638   1.456   5.321  0.7371 -1.1464 -0.4437
17577THY     HO29880   1.597   1.541   5.346 -0.6641  1.6902 -1.7889
17577THY    CA129881   1.648   1.385   5.440  0.3468  0.1120 -0.5448
17577THY    CA229882   1.632   1.245   5.442  0.3242 -0.4441 -0.0365
17577THY    CP129883   1.603   1.171   5.309 -0.9615 -0.0985 -0.0867
17577THY    HP129884   1.597   1.235   5.221  2.1423  0.3743  0.9946
17577THY    CP229885   1.470   1.103   5.320 -0.6980  0.5908  0.9108
17577THY    HP229886   1.389   1.177   5.324 -0.5426 -0.6227  1.1537
17577THY    HP329887   1.463   1.033   5.405 -0.8569  0.0177  0.2166
17577THY    HP429888   1.458   1.061   5.219  1.5801  0.1008  1.3503
17577THY    CP329889   1.703   1.066   5.282 -0.0444  0.5728  0.6372
17577THY    HP529890   1.680   0.980   5.346 -0.5606 -0.0339  0.3125
17577THY    HP629891   1.811   1.080   5.297  0.7123 -1.0101 -2.4289
17577THY    HP729892   1.696   1.019   5.183  0.2650  1.4280 -1.3294
17577THY    CA329893   1.652   1.176   5.564 -0.0613  0.1364  0.2832
17577THY    HA329894   1.664   1.069   5.567  1.0975 -0.2442  0.3858
17577THY    CA429895   1.679   1.251   5.678  0.2331 -0.4257  0.2032
17577THY    HA429896   1.690   1.198   5.772 -1.3104 -0.6247 -0.5312
17577THY    CA529897   1.708   1.391   5.677 -0.1953  0.4159 -0.0838
17577THY    CM129898   1.771   1.457   5.796 -0.5494 -0.6588  0.0657
17577THY    HM129899   1.705   1.475   5.881  0.9136  1.1352 -2.4818
17577THY    HM229900   1.823   1.551   5.773  1.6927  2.3604 -0.2770
17577THY    HM329901   1.841   1.385   5.840 -2.9409 -1.1693 -2.7166
17577THY    CA629902   1.691   1.461   5.554  0.2656  0.2684  0.0950
17577THY    HA629903   1.712   1.566   5.539  0.5766  0.1762  0.0187
17578THY      O29904   7.629   7.450   3.704  0.2830 -0.1328  0.1958
17578THY     HO29905   7.578   7.443   3.622 -0.6101  0.5238 -2.6432
17578THY    CA129906   7.699   7.334   3.721  0.2393  0.1465 -0.3314
17578THY    CA229907   7.813   7.320   3.809 -0.5972  0.3735  0.1291
17578THY    CP129908   7.859   7.441   3.891 -0.0626 -0.2421  0.1228
17578THY    HP129909   7.824   7.530   3.836  3.0695 -0.3761  1.3760
17578THY    CP229910   8.011   7.465   3.891 -0.0420 -0.0150  0.3721
17578THY    HP229911   8.051   7.384   3.954 -1.9613 -1.5635 -1.9369
17578THY    HP329912   8.043   7.566   3.919 -0.9891 -1.4503  1.1024
17578THY    HP429913   8.054   7.443   3.793  1.9654  0.8054  0.4379
17578THY    CP329914   7.813   7.437   4.032  0.4820 -0.2957 -0.0032
17578THY    HP529915   7.876   7.383   4.104  1.9834  0.2489  2.3319
17578THY    HP629916   7.706   7.413   4.030  0.5951 -4.3629 -0.8988
17578THY    HP729917   7.828   7.538   4.072  0.4035 -0.6892  0.1652
17578THY    CA329918   7.882   7.200   3.819 -0.4110  0.3396  0.5361
17578THY    HA329919   7.976   7.197   3.873 -1.5017  2.3203 -2.8185
17578THY    CA429920   7.845   7.093   3.734 -0.0065  0.6597  0.5193
17578THY    HA429921   7.897   6.997   3.733 -0.9196 -3.6351 -0.1305
17578THY    CA529922   7.726   7.106   3.657  0.4031 -1.1099  0.0362
17578THY    CM129923   7.681   6.999   3.564  0.4721  0.1851 -0.4549
17578THY    HM129924   7.741   6.909   3.582 -0.2659 -0.5063 -1.0997
17578THY    HM229925   7.690   7.025   3.458 -0.8837  0.5441  1.7564
17578THY    HM329926   7.578   6.972   3.592 -0.0453 -0.5307  0.6701
17578THY    CA629927   7.656   7.227   3.658  0.1113  0.2355  0.6153
17578THY    HA629928   7.562   7.236   3.605  0.5065 -0.9762 -1.5940
17579THY      O29929   1.477   5.455   3.913  0.0627  0.2271  0.4073
17579THY     HO29930   1.489   5.504   3.830 -1.1798 -0.3663 -0.2583
17579THY    CA129931   1.541   5.339   3.875  0.3449  0.1546 -0.3270
17579THY    CA229932   1.491   5.209   3.900 -0.1955  0.9694  0.1743
17579THY    CP129933   1.382   5.190   3.998  0.2150  0.2416 -0.0462
17579THY    HP129934   1.374   5.281   4.058 -0.2222  2.5744 -1.5278
17579THY    CP229935   1.409   5.072   4.093 -0.1315  0.6093  0.5563
17579THY    HP229936   1.324   5.074   4.162  1.1440  2.2307  2.1169
17579THY    HP329937   1.497   5.092   4.155 -0.0589  0.4677  0.6835
17579THY    HP429938   1.425   4.976   4.042  2.1835 -0.4843  1.4399
17579THY    CP329939   1.253   5.165   3.932  0.1908  0.6001 -0.4787
17579THY    HP529940   1.241   5.209   3.832 -0.9792  0.2424 -1.5408
17579THY    HP629941   1.173   5.201   3.998  1.2231  1.6220  0.0064
17579THY    HP729942   1.226   5.059   3.921 -0.2099 -0.1892 -0.3000
17579THY    CA329943   1.555   5.098   3.839  0.1028 -0.3263  0.0065
17579THY    HA329944   1.512   5.000   3.860 -2.1822 -1.6523  0.6418
17579THY    CA429945   1.663   5.117   3.755 -0.5847  0.3294  0.7672
17579THY    HA429946   1.716   5.038   3.703  0.2796  0.3032  1.3489
17579THY    CA529947   1.717   5.244   3.734  0.2372  0.0509 -0.0193
17579THY    CM129948   1.843   5.254   3.656  0.8263 -0.7182  0.3495
17579THY    HM129949   1.898   5.165   3.623  1.6422 -2.4758  1.4528
17579THY    HM229950   1.913   5.317   3.712 -0.6181 -0.5059  1.8072
17579THY    HM329951   1.815   5.307   3.564 -0.0756  0.1488  1.4209
17579THY    CA629952   1.659   5.351   3.794 -0.7132  0.1904 -0.5989
17579THY    HA629953   1.703   5.447   3.768  1.0274  0.9732 -1.1436
17580THY      O29954   0.593   2.182   3.650  0.1318 -0.1835  0.3084
17580THY     HO29955   0.550   2.264   3.620 -0.4546 -1.3703 -0.4063
17580THY    CA129956   0.659   2.127   3.548 -0.1275  0.3768  0.2077
17580THY    CA229957   0.741   2.013   3.561  0.1524  0.0276 -0.5099
17580THY    CP129958   0.766   1.947   3.700 -0.1551 -0.1775  0.6860
17580THY    HP129959   0.731   2.011   3.781  0.1725  0.7507 -0.2847
17580THY    CP229960   0.914   1.934   3.718 -0.3039 -0.0155 -0.5480
17580THY    HP229961   0.965   2.028   3.699  1.5302  0.7959 -1.3417
17580THY    HP329962   0.973   1.864   3.657  0.8385  2.7578 -2.1652
17580THY    HP429963   0.931   1.919   3.825  0.1665 -0.2058 -1.4613
17580THY    CP329964   0.692   1.811   3.714  0.0630  0.2165  0.0746
17580THY    HP529965   0.701   1.756   3.808  1.8948  1.1213  1.7715
17580THY    HP629966   0.732   1.744   3.636  0.2487  0.4518 -0.0899
17580THY    HP729967   0.587   1.841   3.710  0.2313  0.8414  0.7569
17580THY    CA329968   0.808   1.962   3.449 -0.2094  0.0180 -0.2103
17580THY    HA329969   0.872   1.874   3.457  0.9491  0.5919  0.6528
17580THY    CA429970   0.791   2.025   3.326 -0.2580 -0.2136  0.1022
17580THY    HA429971   0.824   1.974   3.236 -1.7243  0.2103 -1.7125
17580THY    CA529972   0.708   2.137   3.314 -0.0539 -0.2522  0.6030
17580THY    CM129973   0.661   2.180   3.184  0.4087  1.0819 -0.2112
17580THY    HM129974   0.599   2.106   3.133  0.8800 -1.2276  0.9134
17580THY    HM229975   0.740   2.198   3.110 -0.5267 -0.5136 -2.2747
17580THY    HM329976   0.603   2.272   3.193  2.2958 -0.1509  1.1637
17580THY    CA629977   0.645   2.195   3.426  0.3194 -0.2940  0.7611
17580THY    HA629978   0.569   2.272   3.417 -0.7505 -1.1531 -0.3564
17581THY      O29979   7.623   9.162   7.335  0.7656  0.6045  0.4298
17581THY     HO29980   7.678   9.147   7.256 -0.4910 -0.2508  0.0820
17581THY    CA129981   7.496   9.134   7.291 -0.3307 -0.6577 -0.1237
17581THY    CA229982   7.390   9.179   7.362  0.4679  0.5882  0.0251
17581THY    CP129983   7.399   9.246   7.496 -0.1567 -0.9530 -0.0726
17581THY    HP129984   7.500   9.262   7.533 -0.4700 -0.9032  2.2167
17581THY    CP229985   7.330   9.161   7.598 -0.2021  0.1167 -0.3342
17581THY    HP229986   7.226   9.136   7.576 -1.2467  1.6076  2.3075
17581THY    HP329987   7.311   9.220   7.688  1.1793  0.3606 -0.2287
17581THY    HP429988   7.402   9.091   7.643  0.2091  2.3561  1.4102
17581THY    CP329989   7.344   9.393   7.491  0.3212 -0.3035  0.2264
17581THY    HP529990   7.314   9.427   7.591  0.2921  0.4526 -1.8958
17581THY    HP629991   7.266   9.394   7.414  0.4792 -0.4979  2.3070
17581THY    HP729992   7.434   9.449   7.462 -0.6375 -0.2249  1.8752
17581THY    CA329993   7.266   9.140   7.307  0.1992 -0.5013 -0.4419
17581THY    HA329994   7.169   9.165   7.348 -0.9436 -2.2522 -1.7432
17581THY    CA429995   7.254   9.061   7.199  0.3443  0.1359 -0.4915
17581THY    HA429996   7.152   9.038   7.169  0.2023 -0.9016  1.2608
17581THY    CA529997   7.361   9.023   7.125  0.4295 -0.0820  0.1620
17581THY    CM129998   7.331   8.952   6.996 -0.0100  0.1130  0.8120
17581THY    HM129999   7.279   8.860   7.026  0.0324  1.5651  1.2302
17581THY    HM230000   7.421   8.917   6.946 -0.1470  0.4627 -0.0796
17581THY    HM330001   7.269   9.002   6.921 -0.4877 -0.6027 -0.7623
17581THY    CA630002   7.488   9.064   7.168 -0.9569 -0.0150  0.3663
17581THY    HA630003   7.580   9.036   7.118 -0.2009  1.5187 -0.0248
17582THY      O30004   5.207   8.515   5.674 -0.0132  0.4560 -0.2232
17582THY     HO30005   5.213   8.510   5.577  0.1125  0.3972  0.8135
17582THY    CA130006   5.299   8.423   5.713  0.2869  0.0683 -0.0610
17582THY    CA230007   5.362   8.444   5.835 -0.7384 -0.2816 -0.5515
17582THY    CP130008   5.324   8.558   5.932  0.1241  0.1108  0.6486
17582THY    HP130009   5.218   8.583   5.919 -0.8761  0.0354 -3.1346
17582THY    CP230010   5.403   8.685   5.893  0.7429  0.5245  0.1141
17582THY    HP230011   5.402   8.701   5.785 -0.9645  0.3230 -1.1161
17582THY    HP330012   5.506   8.681   5.929  0.9784 -0.2245 -1.2053
17582THY    HP430013   5.340   8.768   5.928 -0.2133 -1.9425  0.5082
17582THY    CP330014   5.334   8.528   6.085 -0.5886 -0.0130 -0.8195
17582THY    HP530015   5.268   8.581   6.155  0.8376  0.7830 -0.0429
17582THY    HP630016   5.432   8.560   6.120 -0.8778 -0.7249  0.9499
17582THY    HP730017   5.318   8.420   6.094 -2.5098  2.2062 -0.4350
17582THY    CA330018   5.470   8.357   5.871  0.2279 -0.0491 -0.4965
17582THY    HA330019   5.526   8.367   5.963  2.4244 -1.4546  0.9207
17582THY    CA430020   5.496   8.251   5.785  0.2747 -0.3434 -0.2684
17582THY    HA430021   5.584   8.200   5.824 -0.3740  3.0904  0.9800
17582THY    CA530022   5.439   8.236   5.655 -0.1715  0.0697 -0.9320
17582THY    CM130023   5.474   8.122   5.557 -0.3695  0.7887 -0.1863
17582THY    HM130024   5.449   8.164   5.460 -0.8127  1.0909  0.2548
17582THY    HM230025   5.403   8.041   5.576  1.4930  0.6897 -1.9475
17582THY    HM330026   5.576   8.082   5.553 -1.1955  0.1450 -2.3757
17582THY    CA630027   5.343   8.329   5.619 -0.6787  0.4234 -0.0417
17582THY    HA630028   5.281   8.312   5.531 -2.8441  2.0997 -1.5070
17583THY      O30029   4.834   4.666   2.725  0.1498  0.1065  0.3086
17583THY     HO30030   4.930   4.684   2.727  0.2288  1.3022 -0.1558
17583THY    CA130031   4.810   4.597   2.838 -0.1727  0.0887 -0.7274
17583THY    CA230032   4.677   4.593   2.902 -0.0615 -0.0755 -0.3962
17583THY    CP130033   4.552   4.664   2.841  0.0481 -0.7897 -0.2425
17583THY    HP130034   4.578   4.687   2.736 -1.0758 -1.3096 -1.2446
17583THY    CP230035   4.531   4.796   2.899  0.7828  0.5793 -0.2758
17583THY    HP230036   4.620   4.860   2.893 -1.4773  0.8161  3.1794
17583THY    HP330037   4.503   4.776   3.004  0.3882  1.0468  2.3428
17583THY    HP430038   4.443   4.847   2.859 -1.0721  1.0194 -2.9112
17583THY    CP330039   4.430   4.572   2.846  0.2402 -0.0611 -0.1242
17583THY    HP530040   4.410   4.548   2.952  2.3199  0.6721  1.0889
17583THY    HP630041   4.446   4.480   2.790  0.3702 -2.9872  1.5527
17583THY    HP730042   4.343   4.618   2.797  1.7436 -2.1287  0.6417
17583THY    CA330043   4.669   4.512   3.019 -0.1829 -1.1928 -0.0511
17583THY    HA330044   4.577   4.500   3.075 -0.0363 -1.2866 -2.1031
17583THY    CA430045   4.783   4.439   3.060 -0.0877  0.1655  0.1863
17583THY    HA430046   4.765   4.361   3.134 -3.6116 -1.7156 -1.0488
17583THY    CA530047   4.908   4.450   2.995  0.3590  0.2190  0.2579
17583THY    CM130048   5.015   4.359   3.043 -0.2108  0.0110  0.5410
17583THY    HM130049   4.984   4.277   3.109  1.1449 -1.7674 -1.5417
17583THY    HM230050   5.074   4.425   3.107 -1.3154  0.0370  1.5363
17583THY    HM330051   5.073   4.319   2.958 -0.6363  0.8703 -2.1058
17583THY    CA630052   4.922   4.534   2.888 -0.5942 -0.1587 -0.0664
17583THY    HA630053   5.018   4.555   2.844 -0.8393 -0.2546  0.8650
17584THY      O30054   4.723   6.229   5.822  0.0978  0.0129  0.4314
17584THY     HO30055   4.707   6.285   5.745 -0.5990  0.2531  0.5691
17584THY    CA130056   4.796   6.126   5.783 -0.2138  0.1212 -0.0302
17584THY    CA230057   4.884   6.064   5.876 -0.3275 -0.3291  0.5464
17584THY    CP130058   4.871   6.104   6.024  0.2169  0.3078  0.4313
17584THY    HP130059   4.861   6.213   6.025 -0.1602  0.4438  0.3962
17584THY    CP230060   4.993   6.079   6.114 -0.5203  0.2981 -0.3686
17584THY    HP230061   5.084   6.122   6.071 -1.2199  0.5910  1.4803
17584THY    HP330062   5.006   5.975   6.146  0.6333  0.7374 -0.0955
17584THY    HP430063   4.983   6.147   6.199  1.0460 -0.3580  0.7403
17584THY    CP330064   4.750   6.043   6.086 -0.4094 -0.2712  0.2947
17584THY    HP530065   4.732   6.071   6.191  0.6634  0.3531 -1.2099
17584THY    HP630066   4.753   5.933   6.081 -2.2807  0.6812  0.1518
17584THY    HP730067   4.658   6.067   6.031 -1.5965 -0.5341 -3.9655
17584THY    CA330068   4.977   5.959   5.833 -0.1301 -0.8430  0.2643
17584THY    HA330069   5.045   5.907   5.899 -1.3542 -0.1211 -0.4949
17584THY    CA430070   4.978   5.934   5.698 -0.3745 -0.4783  0.3386
17584THY    HA430071   5.055   5.866   5.662 -0.0775 -0.1710  0.5099
17584THY    CA530072   4.893   6.001   5.608  0.2269 -0.5538 -0.6303
17584THY    CM130073   4.894   5.960   5.462 -0.7420 -0.7708  0.6275
17584THY    HM130074   4.877   5.853   5.446 -0.7026  1.0240  0.3322
17584THY    HM230075   4.987   5.984   5.410  1.0945  0.0538 -3.7142
17584THY    HM330076   4.816   6.012   5.404 -0.6938 -0.2811  1.2615
17584THY    CA630077   4.803   6.097   5.657 -0.7008 -0.0957 -0.4405
17584THY    HA630078   4.739   6.143   5.582 -0.8941 -0.5804 -1.4448
17585THY      O30079   7.509   0.092   3.889  0.2841 -0.1446  0.6949
17585THY     HO30080   7.434   0.052   3.937 -0.7407 -2.4760 -0.3637
17585THY    CA130081   7.453   0.207   3.871  0.0473  0.8211 -0.7198
17585THY    CA230082   7.527   0.327   3.854 -0.3263  0.4505  0.4099
17585THY    CP130083   7.680   0.333   3.861  0.4161 -0.6480  0.9684
17585THY    HP130084   7.719   0.232   3.877 -3.2572 -0.7610 -0.6464
17585THY    CP230085   7.733   0.423   3.970 -0.1562 -0.4298 -0.2227
17585THY    HP230086   7.695   0.391   4.069  0.4805 -0.1493 -0.1151
17585THY    HP330087   7.703   0.526   3.951 -1.0794  0.8187 -0.2364
17585THY    HP430088   7.842   0.418   3.977 -0.0853 -1.6165 -0.6393
17585THY    CP330089   7.746   0.384   3.738 -0.1098  0.2685  0.1256
17585THY    HP530090   7.715   0.328   3.649 -0.9608  0.5732  0.0951
17585THY    HP630091   7.848   0.347   3.756 -0.3576  1.7198  0.0904
17585THY    HP730092   7.741   0.491   3.713 -2.2769  1.2572  0.3022
17585THY    CA330093   7.456   0.445   3.829 -0.8032 -0.0284  0.5909
17585THY    HA330094   7.509   0.535   3.800  0.0009 -0.9739 -0.1600
17585THY    CA430095   7.321   0.446   3.841 -0.2398  0.2048  0.4192
17585THY    HA430096   7.262   0.535   3.822 -0.4106 -0.1188  0.2384
17585THY    CA530097   7.244   0.334   3.863  0.8305  0.1593 -0.0792
17585THY    CM130098   7.092   0.344   3.870 -0.5783  0.4501  0.1298
17585THY    HM130099   7.058   0.423   3.938 -4.8909 -0.7941 -0.3707
17585THY    HM230100   7.059   0.246   3.908  1.1669  2.8132  0.3642
17585THY    HM330101   7.055   0.350   3.767 -1.3937  0.5842 -1.7886
17585THY    CA630102   7.313   0.214   3.877 -0.0796 -0.3581 -0.7443
17585THY    HA630103   7.242   0.134   3.896 -1.2457  1.0857  0.5497
17586THY      O30104   2.909   8.765   3.956  0.8472 -0.4621 -0.7115
17586THY     HO30105   2.891   8.786   4.050  4.3871 -0.2063  1.9864
17586THY    CA130106   3.026   8.691   3.952  0.3849 -0.0544 -0.0978
17586THY    CA230107   3.097   8.668   3.828  0.2425  0.5267 -0.1844
17586THY    CP130108   3.059   8.736   3.699 -0.2475  0.8439 -0.6855
17586THY    HP130109   2.961   8.784   3.712 -0.7420 -2.2671 -0.6095
17586THY    CP230110   3.031   8.645   3.583  0.2738 -0.0953  0.3200
17586THY    HP230111   2.924   8.621   3.583  0.4952 -0.9659 -0.8094
17586THY    HP330112   3.070   8.543   3.596  2.1151  0.9305  1.1194
17586THY    HP430113   3.066   8.697   3.492  2.7625  1.1302  0.9425
17586THY    CP330114   3.170   8.840   3.646  0.2478 -0.0957  0.0597
17586THY    HP530115   3.252   8.781   3.605 -0.6504 -0.6813 -0.8174
17586THY    HP630116   3.209   8.891   3.735 -1.5704 -0.1170  1.6157
17586THY    HP730117   3.132   8.912   3.573  0.4168 -1.1225 -0.8593
17586THY    CA330118   3.209   8.583   3.824 -0.0544  0.1513 -0.0638
17586THY    HA330119   3.267   8.571   3.733 -0.7394 -0.1404 -1.2835
17586THY    CA430120   3.258   8.526   3.939  0.7154 -0.8726 -0.2434
17586THY    HA430121   3.353   8.475   3.944 -0.1474  1.3107 -1.7616
17586THY    CA530122   3.175   8.529   4.050  0.2788  0.5803 -0.5637
17586THY    CM130123   3.209   8.439   4.168 -0.0515 -0.0478 -0.6782
17586THY    HM130124   3.121   8.433   4.234  0.2673  0.3592 -0.8938
17586THY    HM230125   3.291   8.488   4.221  1.4074 -2.9097  0.2046
17586THY    HM330126   3.242   8.337   4.147 -1.7881 -1.2367 -1.0583
17586THY    CA630127   3.060   8.612   4.059 -1.4509  0.4364  0.7478
17586THY    HA630128   2.996   8.618   4.147 -1.6626  0.3717 -0.2648
17587THY      O30129   6.614   1.204   7.619 -0.4511  0.3101 -0.5275
17587THY     HO30130   6.701   1.224   7.579 -0.0096  0.9797 -1.0851
17587THY    CA130131   6.528   1.275   7.544  0.0767  0.0020 -0.4780
17587THY    CA230132   6.394   1.264   7.555 -0.6947 -0.0414  0.4316
17587THY    CP130133   6.334   1.169   7.664  0.2672 -0.2326  0.4929
17587THY    HP130134   6.403   1.101   7.714 -0.3995  1.3683  0.9537
17587THY    CP230135   6.222   1.074   7.603 -0.2553 -0.5028  0.3375
17587THY    HP230136   6.152   1.131   7.541 -0.2539 -2.0520 -1.2783
17587THY    HP330137   6.176   1.011   7.680 -0.5341 -3.1933 -3.0346
17587THY    HP430138   6.267   0.994   7.544 -0.2896  0.9677 -0.8238
17587THY    CP330139   6.273   1.251   7.779 -0.2631 -0.7808  0.0031
17587THY    HP530140   6.335   1.326   7.830 -1.2792 -0.4934  0.6630
17587THY    HP630141   6.234   1.196   7.865 -2.4588 -1.5306  0.2770
17587THY    HP730142   6.192   1.304   7.729 -0.7272  0.2293  0.2662
17587THY    CA330143   6.310   1.343   7.476  0.1934  0.1554 -0.0580
17587THY    HA330144   6.202   1.341   7.482 -0.0477 -0.7494  3.4870
17587THY    CA430145   6.365   1.430   7.377 -0.1839 -0.6313  0.6929
17587THY    HA430146   6.307   1.503   7.321 -0.6546 -1.9913 -0.6678
17587THY    CA530147   6.509   1.436   7.364  0.7052 -0.4532 -0.0007
17587THY    CM130148   6.576   1.528   7.268  0.5657 -0.4207 -1.1926
17587THY    HM130149   6.546   1.495   7.168  1.5746 -0.8102 -0.9670
17587THY    HM230150   6.685   1.533   7.274  0.9019 -3.3275 -2.6178
17587THY    HM330151   6.524   1.623   7.278 -0.6079 -0.1078 -1.8479
17587THY    CA630152   6.589   1.354   7.441 -0.0143 -0.2368 -1.0263
17587THY    HA630153   6.696   1.371   7.440 -0.0897  2.9153  0.1829
17588THY      O30154   4.133   2.278   2.469 -0.0627 -0.7709  0.2741
17588THY     HO30155   4.157   2.371   2.486 -0.3682  0.9995  0.0648
17588THY    CA130156   4.122   2.266   2.336 -0.2404  0.0183  0.2276
17588THY    CA230157   4.146   2.143   2.274 -0.2699 -0.2887 -0.1407
17588THY    CP130158   4.211   2.024   2.343  0.8030 -0.1995  0.3629
17588THY    HP130159   4.179   2.019   2.447  0.4577 -0.3834 -2.1669
17588THY    CP230160   4.366   2.025   2.347 -0.1087  0.3172 -0.1321
17588THY    HP230161   4.402   2.125   2.372 -4.1512  3.0993  0.8958
17588THY    HP330162   4.404   1.995   2.249  0.6947  0.0774  1.5737
17588THY    HP430163   4.416   1.959   2.419  2.7604 -0.3413  1.2123
17588THY    CP330164   4.146   1.890   2.290  0.2832  0.5835  0.0534
17588THY    HP530165   4.038   1.899   2.305  0.4742  1.2493  1.8306
17588THY    HP630166   4.187   1.801   2.338  1.0044 -1.7039 -0.9157
17588THY    HP730167   4.155   1.870   2.183 -1.6911 -0.0666  2.1970
17588THY    CA330168   4.141   2.142   2.133 -0.1605 -0.5515 -0.4324
17588THY    HA330169   4.164   2.047   2.085  1.1655 -0.5836 -0.1126
17588THY    CA430170   4.103   2.254   2.055 -0.3495  0.0021 -0.5929
17588THY    HA430171   4.097   2.248   1.947  1.1412 -0.0514 -1.3868
17588THY    CA530172   4.071   2.371   2.121  0.1981 -0.2146 -0.4883
17588THY    CM130173   4.039   2.499   2.051 -0.1056  0.5046 -0.6336
17588THY    HM130174   3.934   2.510   2.023 -0.1621  0.7521 -0.5048
17588THY    HM230175   4.090   2.526   1.958 -2.1278 -0.3465  0.5120
17588THY    HM330176   4.067   2.583   2.116  0.3471 -1.5815  0.9146
17588THY    CA630177   4.088   2.381   2.262 -0.2970  0.0324 -0.2089
17588THY    HA630178   4.063   2.473   2.315 -0.0267  1.5928 -1.0025
17589THY      O30179   6.839   5.920   3.400 -0.4552  0.6913  0.6539
17589THY     HO30180   6.757   5.870   3.394 -0.8397  0.6708  1.2732
17589THY    CA130181   6.841   5.989   3.280 -0.0017 -0.4010 -0.2126
17589THY    CA230182   6.950   6.033   3.211  0.0217 -0.7322 -0.4703
17589THY    CP130183   7.089   6.010   3.259  0.1565 -0.4783 -0.1108
17589THY    HP130184   7.078   5.990   3.366 -2.4059 -0.8763 -1.3225
17589THY    CP230185   7.183   6.131   3.248  0.2459  0.5702 -0.2940
17589THY    HP230186   7.148   6.212   3.313 -2.9555 -1.4005  0.1099
17589THY    HP330187   7.213   6.169   3.150  1.1178  1.1951  0.6915
17589THY    HP430188   7.279   6.107   3.295  0.7890 -0.5015 -0.2661
17589THY    CP330189   7.160   5.890   3.193  0.2860 -0.4424  0.7074
17589THY    HP530190   7.092   5.807   3.169  0.9879 -1.9990  0.5486
17589THY    HP630191   7.233   5.848   3.264 -1.5686  1.5066  0.5962
17589THY    HP730192   7.208   5.927   3.102  0.4627 -0.6593 -0.0505
17589THY    CA330193   6.932   6.121   3.098  0.9828  0.6474 -0.1927
17589THY    HA330194   7.015   6.169   3.047  0.1765 -0.7501 -0.2452
17589THY    CA430195   6.798   6.150   3.061  0.2398  0.2649  0.5512
17589THY    HA430196   6.781   6.228   2.986 -0.3194  0.3724  0.5360
17589THY    CA530197   6.688   6.089   3.121 -0.1804 -0.0689 -1.1080
17589THY    CM130198   6.546   6.128   3.080  0.2219 -0.3595  0.1744
17589THY    HM130199   6.508   6.102   2.980 -2.4818  0.7457 -0.4332
17589THY    HM230200   6.540   6.237   3.088 -0.9150  0.6475  0.0529
17589THY    HM330201   6.478   6.087   3.155 -0.3147 -0.7718  0.3005
17589THY    CA630202   6.709   6.009   3.229  0.3244 -0.8325  0.3084
17589THY    HA630203   6.626   5.960   3.278  0.9659 -1.5746 -1.5963
17590THY      O30204   2.906   3.383   2.593  0.3142 -0.5664 -0.3179
17590THY     HO30205   2.946   3.343   2.514  1.8463 -0.8259  1.5781
17590THY    CA130206   2.771   3.392   2.573 -0.2890 -0.1756  0.4351
17590THY    CA230207   2.682   3.421   2.673 -0.7746  0.3387 -0.4724
17590THY    CP130208   2.730   3.439   2.819  0.0511 -0.7569  0.5312
17590THY    HP130209   2.838   3.427   2.833 -0.2595  0.4275 -1.2972
17590THY    CP230210   2.689   3.315   2.891 -0.0790  0.3786  0.3820
17590THY    HP230211   2.723   3.304   2.995 -3.0859  1.4100 -0.0948
17590THY    HP330212   2.731   3.227   2.841 -0.3650 -1.1156  1.0672
17590THY    HP430213   2.581   3.297   2.890 -0.0317  0.8118  0.0749
17590THY    CP330214   2.678   3.566   2.888 -0.3327  0.1180  0.8319
17590THY    HP530215   2.723   3.655   2.841 -1.6656 -0.4173  1.2463
17590THY    HP630216   2.705   3.569   2.994 -1.8724  0.5291  0.9588
17590THY    HP730217   2.569   3.572   2.884 -0.6212  0.0013 -2.6201
17590THY    CA330218   2.544   3.438   2.643  0.2056 -0.1599  0.6194
17590THY    HA330219   2.481   3.474   2.724  1.7546  2.3039 -1.7955
17590THY    CA430220   2.499   3.412   2.517  0.8960 -0.3256 -0.7430
17590THY    HA430221   2.397   3.437   2.488 -0.2591  2.1190 -2.2454
17590THY    CA530222   2.590   3.370   2.419 -0.5601  0.1582  0.4144
17590THY    CM130223   2.538   3.333   2.283  1.0666 -0.2830 -0.1008
17590THY    HM130224   2.624   3.327   2.215  1.1975 -0.1584  0.3265
17590THY    HM230225   2.482   3.423   2.254 -0.2900  1.4603 -0.3278
17590THY    HM330226   2.474   3.244   2.281  0.6370  2.7351  0.0219
17590THY    CA630227   2.726   3.366   2.446  0.4212  0.0185 -0.9187
17590THY    HA630228   2.795   3.354   2.363  1.4227  1.0555 -2.7330
17591THY      O30229   2.422   4.967   5.617  0.1792  0.2344 -0.3728
17591THY     HO30230   2.381   4.911   5.685 -0.8664 -0.4628 -0.4764
17591THY    CA130231   2.402   4.895   5.506 -0.2026  0.2623 -0.0064
17591THY    CA230232   2.469   4.941   5.384  0.0525 -0.3318 -0.0505
17591THY    CP130233   2.563   5.067   5.386 -0.2449  0.6871 -0.1190
17591THY    HP130234   2.610   5.069   5.485 -0.3422  0.7349 -0.2000
17591THY    CP230235   2.478   5.191   5.394 -0.4838  0.2014 -0.7885
17591THY    HP230236   2.536   5.283   5.389  0.9628  0.2788 -1.6611
17591THY    HP330237   2.422   5.189   5.488 -1.8551 -0.5593  0.2608
17591THY    HP430238   2.404   5.190   5.313 -1.9234  1.4494 -2.5295
17591THY    CP330239   2.674   5.064   5.283  0.4251  0.8912 -0.6926
17591THY    HP530240   2.753   5.138   5.299 -0.6036 -0.7940  0.8540
17591THY    HP630241   2.622   5.084   5.188  0.9102  1.1372  2.2394
17591THY    HP730242   2.725   4.968   5.287  0.0377 -0.8767 -1.0061
17591THY    CA330243   2.437   4.867   5.266  0.0763 -0.2883 -0.5115
17591THY    HA330244   2.482   4.902   5.173 -0.5549  0.1845  1.6987
17591THY    CA430245   2.339   4.762   5.269  0.0628  0.0720 -0.2597
17591THY    HA430246   2.305   4.714   5.177  1.9797  0.4593 -2.5170
17591THY    CA530247   2.295   4.715   5.395  0.2097  0.0911 -0.3493
17591THY    CM130248   2.208   4.593   5.406 -0.3196  0.5196  0.7300
17591THY    HM130249   2.140   4.582   5.491  0.4649  1.2445  1.4175
17591THY    HM230250   2.269   4.503   5.402 -0.6897  0.0220  0.4907
17591THY    HM330251   2.137   4.599   5.322  0.2369 -0.0222 -0.1537
17591THY    CA630252   2.320   4.786   5.510  0.1640  0.2546 -0.6387
17591THY    HA630253   2.262   4.759   5.598 -2.2201 -0.3724  2.0528
17592THY      O30254   1.616   1.759   3.122 -0.2339 -0.0586  0.2489
17592THY     HO30255   1.536   1.737   3.171  0.1536 -0.0440 -1.1872
17592THY    CA130256   1.606   1.700   2.996 -0.2631 -0.2921 -0.6865
17592THY    CA230257   1.710   1.695   2.903 -0.2386  0.2988  0.4395
17592THY    CP130258   1.846   1.746   2.955  0.3460 -0.6915 -0.4089
17592THY    HP130259   1.827   1.820   3.034  2.2300 -1.1856  0.6708
17592THY    CP230260   1.922   1.830   2.847 -0.5997 -0.0705  0.1910
17592THY    HP230261   1.911   1.778   2.751  0.1248 -1.2330  2.0741
17592THY    HP330262   2.028   1.838   2.874 -0.6416  0.8767 -1.6904
17592THY    HP430263   1.872   1.926   2.829  2.9127 -1.9640  1.8616
17592THY    CP330264   1.933   1.636   3.026  0.2278  0.5107  0.4647
17592THY    HP530265   2.012   1.682   3.086  0.3725  0.8343 -0.1998
17592THY    HP630266   1.980   1.577   2.946  2.0905  1.0398  1.1661
17592THY    HP730267   1.877   1.574   3.096  1.3115 -0.2605 -1.4871
17592THY    CA330268   1.688   1.623   2.781  0.1675  0.2859 -0.5380
17592THY    HA330269   1.771   1.610   2.712 -0.9398 -1.1631 -0.1961
17592THY    CA430270   1.562   1.566   2.758 -0.0837  0.0809  0.0569
17592THY    HA430271   1.543   1.511   2.666 -0.6555 -0.8404  1.7177
17592THY    CA530272   1.452   1.590   2.840 -0.8880 -0.5125 -0.5882
17592THY    CM130273   1.324   1.542   2.809  0.2315 -0.1704 -0.7585
17592THY    HM130274   1.268   1.635   2.795  0.5685  0.2374 -0.4858
17592THY    HM230275   1.287   1.494   2.900  1.1141 -0.0326 -1.2061
17592THY    HM330276   1.318   1.479   2.719 -0.3593 -2.0483  1.8157
17592THY    CA630277   1.477   1.662   2.956  0.6297 -0.2648  1.1858
17592THY    HA630278   1.397   1.667   3.030  0.7154  0.3143 -2.9597
17593THY      O30279   6.659   8.588   5.878  0.4370 -0.1390 -0.3600
17593THY     HO30280   6.751   8.580   5.911  0.6383 -0.2486  1.1321
17593THY    CA130281   6.570   8.602   5.981 -0.1333 -0.4887  0.3670
17593THY    CA230282   6.435   8.546   5.985  0.1445 -0.7491  0.3355
17593THY    CP130283   6.374   8.490   5.861 -0.1547 -0.4816  0.4533
17593THY    HP130284   6.438   8.517   5.776  1.9094  0.0128 -2.4338
17593THY    CP230285   6.251   8.576   5.824  0.2247 -0.7056  0.0004
17593THY    HP230286   6.168   8.552   5.892  0.3739 -0.3665  0.4468
17593THY    HP330287   6.224   8.552   5.721 -1.5275 -0.3877  0.4261
17593THY    HP430288   6.283   8.680   5.830  1.2592 -0.9912 -0.2985
17593THY    CP330289   6.342   8.343   5.868 -0.2518 -0.3536 -0.0830
17593THY    HP530290   6.249   8.322   5.921  1.0381  2.3337  0.6231
17593THY    HP630291   6.434   8.302   5.912  0.5000 -1.1845  0.6506
17593THY    HP730292   6.329   8.299   5.768 -0.5427 -0.6596  0.6915
17593THY    CA330293   6.372   8.538   6.111  0.3931  0.1863  0.4706
17593THY    HA330294   6.279   8.484   6.126  1.2065  0.9179 -0.7785
17593THY    CA430295   6.442   8.585   6.226 -0.2510 -0.4912 -0.2229
17593THY    HA430296   6.423   8.545   6.325  0.9305  0.8517  2.2958
17593THY    CA530297   6.562   8.652   6.217 -0.2148  0.0723 -0.4553
17593THY    CM130298   6.623   8.712   6.340 -0.0667  0.4831  1.2243
17593THY    HM130299   6.651   8.631   6.409 -1.5585 -0.3518 -0.0703
17593THY    HM230300   6.570   8.785   6.402 -0.5269  0.4276  0.9442
17593THY    HM330301   6.715   8.765   6.313 -0.1627 -0.1781  1.0585
17593THY    CA630302   6.626   8.656   6.092  0.3628 -0.3058  0.2165
17593THY    HA630303   6.728   8.693   6.081 -0.2004 -1.6748  1.4361
17594THY      O30304   9.042   5.805   3.056 -0.0651  0.6003  0.0292
17594THY     HO30305   9.026   5.851   2.971 -0.5286 -0.1334 -1.4176
17594THY    CA130306   9.130   5.707   3.022 -1.2287 -0.9928  0.1798
17594THY    CA230307   9.168   5.606   3.111  0.5723 -0.2359 -0.3292
17594THY    CP130308   9.123   5.609   3.262 -0.0370 -0.0775  0.3600
17594THY    HP130309   9.109   5.713   3.292  1.2482  2.2147 -0.0691
17594THY    CP230310   9.224   5.564   3.358 -0.5497 -0.6537 -0.1554
17594THY    HP230311   9.217   5.615   3.455 -1.6147  0.4368 -2.2556
17594THY    HP330312   9.320   5.585   3.309  0.7100  0.7776 -2.1806
17594THY    HP430313   9.219   5.455   3.368 -0.1542  1.1086 -0.0394
17594THY    CP330314   8.991   5.526   3.289 -0.2879 -0.0738  0.0837
17594THY    HP530315   8.969   5.529   3.396  0.5247  0.1235 -0.6524
17594THY    HP630316   8.997   5.420   3.262 -3.5110  2.1538 -0.8099
17594THY    HP730317   8.916   5.577   3.228 -0.3762  2.0323  2.7295
17594THY    CA330318   9.255   5.505   3.067  0.5208 -0.3916 -0.1827
17594THY    HA330319   9.269   5.420   3.133 -1.2495  0.7466  0.3410
17594THY    CA430320   9.310   5.519   2.933 -0.4943 -0.3890  0.8670
17594THY    HA430321   9.386   5.447   2.904 -1.7213 -0.7204 -0.3479
17594THY    CA530322   9.280   5.625   2.856 -0.2379  0.3446 -0.2865
17594THY    CM130323   9.364   5.643   2.732  0.2798  0.2411  0.1858
17594THY    HM130324   9.460   5.693   2.750  2.4238 -2.8359 -2.3569
17594THY    HM230325   9.297   5.701   2.668  1.0768 -1.1583 -0.3684
17594THY    HM330326   9.387   5.544   2.691 -0.0380 -3.6936  1.5474
17594THY    CA630327   9.186   5.719   2.897  0.0590 -0.1323 -0.2712
17594THY    HA630328   9.163   5.806   2.836 -2.6966 -0.3314 -1.0577
17595THY      O30329   9.076   5.307   7.713 -0.3904  0.4862 -0.3855
17595THY     HO30330   9.173   5.316   7.705 -0.4749 -2.5709 -0.9634
17595THY    CA130331   9.050   5.192   7.659  0.4451  0.0700  0.2472
17595THY    CA230332   8.970   5.189   7.544  0.4926  0.1558  0.3149
17595THY    CP130333   8.923   5.318   7.474  0.0030  0.3406  0.0753
17595THY    HP130334   8.966   5.401   7.531 -0.6019 -0.0079  0.6252
17595THY    CP230335   8.768   5.342   7.468  0.4018 -0.0453 -0.3973
17595THY    HP230336   8.720   5.251   7.433 -1.2256 -0.9817  0.7694
17595THY    HP330337   8.740   5.433   7.414 -0.2266 -0.4820 -0.8449
17595THY    HP430338   8.735   5.340   7.573 -1.3158 -0.5741 -2.1401
17595THY    CP330339   8.991   5.341   7.338 -0.0643 -0.4559  0.2859
17595THY    HP530340   8.968   5.267   7.261  2.6255 -0.7394 -0.3433
17595THY    HP630341   9.100   5.344   7.350 -0.1857  1.1506 -0.2337
17595THY    HP730342   8.958   5.435   7.292 -2.1837 -1.3023 -0.7974
17595THY    CA330343   8.926   5.067   7.488 -0.4737 -0.1491 -0.4733
17595THY    HA330344   8.852   5.063   7.409 -1.6646  0.6791  2.4020
17595THY    CA430345   8.968   4.947   7.555  0.6998  0.0258 -0.4386
17595THY    HA430346   8.944   4.852   7.510 -0.0964  3.4140 -1.9995
17595THY    CA530347   9.061   4.958   7.664  0.9824 -0.0866  0.6211
17595THY    CM130348   9.121   4.831   7.722 -0.0563 -0.4871 -0.2625
17595THY    HM130349   9.064   4.802   7.811  1.1220  1.3781  2.7725
17595THY    HM230350   9.228   4.843   7.744 -0.2634 -0.0834  0.9267
17595THY    HM330351   9.120   4.743   7.656 -0.3396  0.1035 -0.7066
17595THY    CA630352   9.096   5.077   7.716  0.1380  0.3227 -0.2316
17595THY    HA630353   9.164   5.073   7.800  1.3919 -0.6867 -1.1290
17596THY      O30354   0.761   8.367   2.001  0.1341 -0.6216  0.5332
17596THY     HO30355   0.773   8.271   1.988 -0.9656  1.4987  0.0480
17596THY    CA130356   0.845   8.415   2.098  0.7573  0.5621  0.0312
17596THY    CA230357   0.853   8.552   2.129  0.0789  0.4240 -0.3767
17596THY    CP130358   0.772   8.651   2.050 -0.4689 -0.1161 -0.5865
17596THY    HP130359   0.693   8.598   1.996 -1.9441  0.8434  0.5515
17596THY    CP230360   0.852   8.729   1.946  0.0247  0.0044  0.6720
17596THY    HP230361   0.783   8.785   1.882  0.3190 -2.4433 -1.5724
17596THY    HP330362   0.909   8.660   1.882  1.4081  2.6202 -0.7627
17596THY    HP430363   0.928   8.797   1.988  0.0815  1.9292 -0.5035
17596THY    CP330364   0.691   8.748   2.130  0.0776  0.5425  0.3398
17596THY    HP530365   0.628   8.685   2.194  0.1405 -0.7072 -1.0593
17596THY    HP630366   0.626   8.809   2.065 -0.6363  0.6510 -0.2821
17596THY    HP730367   0.759   8.809   2.190  2.6210 -2.7840  1.0585
17596THY    CA330368   0.949   8.593   2.223  0.5871  0.1279  0.4418
17596THY    HA330369   0.962   8.701   2.233  2.4066 -3.3326  0.6865
17596THY    CA430370   1.030   8.497   2.283 -0.2689 -0.0387 -0.6084
17596THY    HA430371   1.085   8.542   2.366 -2.5898  0.5575  1.3255
17596THY    CA530372   1.020   8.362   2.251 -0.3809 -0.1471 -0.0138
17596THY    CM130373   1.101   8.264   2.328 -0.4073  0.4099  0.1685
17596THY    HM130374   1.159   8.208   2.253 -1.0356  0.3883 -0.4715
17596THY    HM230375   1.036   8.194   2.382 -1.0732  2.7371  2.4499
17596THY    HM330376   1.167   8.305   2.405  1.1216 -1.7056  1.9077
17596THY    CA630377   0.930   8.322   2.157 -0.5539  0.1269  0.1833
17596THY    HA630378   0.928   8.215   2.139  2.5503  0.0829  0.0356
17597THY      O30379   9.368   7.359   4.454  0.6057  0.3666 -0.4480
17597THY     HO30380   9.358   7.410   4.536 -2.1879  0.6427 -1.3021
17597THY    CA130381   9.239   7.325   4.418 -0.1956  0.3191 -0.4112
17597THY    CA230382   9.216   7.228   4.324 -0.7739 -0.8717  0.3154
17597THY    CP130383   9.336   7.149   4.261  0.7572  1.2528 -0.5133
17597THY    HP130384   9.430   7.188   4.300 -0.1698  1.5180  1.6044
17597THY    CP230385   9.327   7.175   4.106 -0.6668  0.2741 -0.3497
17597THY    HP230386   9.246   7.113   4.066 -0.4372 -2.7040  1.0969
17597THY    HP330387   9.425   7.147   4.063  0.2891  1.1483  1.5025
17597THY    HP430388   9.305   7.280   4.084 -2.8298  0.5862 -0.7041
17597THY    CP330389   9.325   7.004   4.296 -0.7374  0.1191  0.5342
17597THY    HP530390   9.339   7.006   4.405 -0.5510  0.0995  0.2937
17597THY    HP630391   9.418   6.966   4.251 -1.0011 -0.7166  0.8590
17597THY    HP730392   9.229   6.962   4.267 -0.5882 -0.2165  0.4194
17597THY    CA330393   9.082   7.183   4.297  0.1405  0.6052 -1.0265
17597THY    HA330394   9.060   7.109   4.221  1.2693  0.2369 -1.0011
17597THY    CA430395   8.972   7.236   4.362  0.7133 -0.6237  0.3747
17597THY    HA430396   8.872   7.201   4.338  0.9937 -0.7848 -0.3460
17597THY    CA530397   8.991   7.336   4.461 -0.7337 -0.0974 -0.9082
17597THY    CM130398   8.867   7.401   4.525  0.1765  0.2571  0.3512
17597THY    HM130399   8.889   7.422   4.630  1.8060 -0.0024  0.0346
17597THY    HM230400   8.784   7.329   4.523 -0.3222 -2.3374  0.9175
17597THY    HM330401   8.834   7.491   4.472 -0.4354  1.5704  0.9296
17597THY    CA630402   9.124   7.386   4.481 -0.6457  0.6030 -0.1870
17597THY    HA630403   9.140   7.462   4.558 -1.0525 -0.5390  1.1027
17598THY      O30404   9.077   4.954   3.407  0.3701  0.0168 -0.0766
17598THY     HO30405   9.117   4.876   3.367 -0.4523 -0.5993 -0.1837
17598THY    CA130406   9.065   4.915   3.540  1.1823  0.3403 -0.6513
17598THY    CA230407   9.041   5.010   3.653 -0.7110  0.1283 -0.2407
17598THY    CP130408   9.012   5.157   3.620 -0.7400 -0.3281 -0.1446
17598THY    HP130409   9.003   5.163   3.511  0.5136 -0.3777  1.5083
17598THY    CP230410   9.134   5.242   3.649  0.0560  0.4105  0.7693
17598THY    HP230411   9.218   5.203   3.591 -0.2304 -0.9870  2.1529
17598THY    HP330412   9.149   5.243   3.758 -0.6055  0.5131  0.4709
17598THY    HP430413   9.119   5.342   3.607 -2.4191 -0.0380  0.2738
17598THY    CP330414   8.887   5.198   3.692  0.6443 -0.2381  0.4574
17598THY    HP530415   8.908   5.227   3.796  1.6011 -0.1212 -0.6137
17598THY    HP630416   8.807   5.123   3.696  1.3769  0.5210 -0.3097
17598THY    HP730417   8.848   5.293   3.655 -0.0965  3.6429  1.8592
17598THY    CA330418   9.040   4.956   3.782 -0.0242 -0.2373  0.4003
17598THY    HA330419   9.039   5.029   3.863  1.5884 -0.3758  0.6238
17598THY    CA430420   9.047   4.815   3.805  0.7841  0.1735 -0.2079
17598THY    HA430421   9.040   4.766   3.902  0.5365  1.4590  2.2224
17598THY    CA530422   9.075   4.730   3.694  0.5193  0.2079  0.4647
17598THY    CM130423   9.089   4.572   3.714  0.8233 -0.4659 -0.2235
17598THY    HM130424   9.151   4.525   3.637  0.8788 -0.7188  0.2505
17598THY    HM230425   8.993   4.520   3.713  0.9287 -0.5675 -0.4163
17598THY    HM330426   9.147   4.563   3.807  0.8808 -0.4954 -0.1697
17598THY    CA630427   9.084   4.786   3.565  0.2021 -0.2233  0.7120
17598THY    HA630428   9.106   4.712   3.488 -1.8413  1.2539 -1.5761
17599THY      O30429   5.150   7.221   7.477  0.3146  0.5446  0.5872
17599THY     HO30430   5.089   7.223   7.553 -0.2873  0.1555 -1.1679
17599THY    CA130431   5.135   7.103   7.419  0.3450  0.3188  0.7016
17599THY    CA230432   5.182   7.079   7.288  0.4680  0.1138  0.4063
17599THY    CP130433   5.265   7.181   7.210 -0.1214 -0.2994  0.0752
17599THY    HP130434   5.317   7.252   7.276  0.7251 -1.6362  0.7538
17599THY    CP230435   5.181   7.272   7.112 -0.4933  0.5540 -0.6513
17599THY    HP230436   5.245   7.319   7.036  1.1442  2.4116  0.2773
17599THY    HP330437   5.118   7.344   7.164 -0.2314  1.6244 -1.1661
17599THY    HP430438   5.124   7.201   7.050 -0.5997  3.0546 -2.9124
17599THY    CP330439   5.375   7.104   7.150  0.3268  0.2086 -0.6229
17599THY    HP530440   5.443   7.184   7.116 -1.9653 -0.5745  1.1005
17599THY    HP630441   5.336   7.063   7.056 -0.0436  0.1283 -0.0929
17599THY    HP730442   5.424   7.031   7.216 -0.1937  0.4293 -0.7735
17599THY    CA330443   5.131   6.970   7.215  0.0649  0.6564  0.9897
17599THY    HA330444   5.163   6.947   7.114 -0.4022  0.4411  1.2795
17599THY    CA430445   5.057   6.871   7.282  0.4697 -0.9185 -0.1567
17599THY    HA430446   5.013   6.782   7.238 -0.9225 -0.3140  0.1997
17599THY    CA530447   5.022   6.886   7.416 -0.0955  0.7709 -0.0748
17599THY    CM130448   4.952   6.777   7.486  0.0373 -0.0006 -0.4253
17599THY    HM130449   5.024   6.727   7.551  1.4265 -1.0826  0.1234
17599THY    HM230450   4.911   6.701   7.419 -2.0170 -0.6437  1.1389
17599THY    HM330451   4.871   6.820   7.547  2.3020  1.4656  2.1352
17599THY    CA630452   5.046   7.008   7.476 -0.1108  0.4427 -0.2917
17599THY    HA630453   5.021   7.021   7.581 -0.7267  0.2833 -0.1237
17600THY      O30454   1.569   7.162   5.938  0.1440 -0.4006 -0.3577
17600THY     HO30455   1.544   7.087   5.882  0.4478 -1.2752  0.1858
17600THY    CA130456   1.563   7.120   6.067 -1.1683 -0.1665  0.4936
17600THY    CA230457   1.583   7.211   6.172  0.0914 -0.8383  0.0083
17600THY    CP130458   1.614   7.356   6.136  0.1615 -0.1524  0.1951
17600THY    HP130459   1.606   7.380   6.030 -0.1497 -0.0469  0.5786
17600THY    CP230460   1.760   7.403   6.175  0.6830 -0.0742  0.8020
17600THY    HP230461   1.785   7.505   6.145  0.5704  1.2887  1.2598
17600THY    HP330462   1.833   7.339   6.123  2.4767  3.1677 -0.0300
17600THY    HP430463   1.784   7.391   6.282  0.1911 -0.1085 -0.7079
17600THY    CP330464   1.510   7.454   6.204 -0.1341  1.1653 -0.1491
17600THY    HP530465   1.527   7.558   6.174  2.1061  1.2014 -0.4651
17600THY    HP630466   1.501   7.443   6.313 -0.3237  0.9783 -2.5311
17600THY    HP730467   1.409   7.433   6.167 -0.6202  0.8126  2.5573
17600THY    CA330468   1.571   7.155   6.303 -0.1450  0.1160 -0.5491
17600THY    HA330469   1.580   7.222   6.388  0.5680 -0.3694 -0.0049
17600THY    CA430470   1.527   7.027   6.323  0.3992  0.4434  0.1605
17600THY    HA430471   1.513   6.982   6.421 -1.3214 -0.5843 -1.7069
17600THY    CA530472   1.507   6.940   6.215  0.3405 -0.9390 -0.5965
17600THY    CM130473   1.452   6.801   6.241 -0.4709 -0.1805 -0.3381
17600THY    HM130474   1.383   6.806   6.326  0.2550  0.3614  1.3158
17600THY    HM230475   1.528   6.725   6.263 -1.3717  0.7875 -0.9756
17600THY    HM330476   1.383   6.771   6.162 -1.2901  0.0084  0.9690
17600THY    CA630477   1.529   6.985   6.087 -0.0689  0.2192 -0.4808
17600THY    HA630478   1.507   6.923   6.001  0.4732  1.4695 -2.4743
17601THY      O30479   1.922   7.990   5.844  0.0491 -0.1363 -0.6768
17601THY     HO30480   1.976   8.046   5.786 -0.5760 -0.4370 -0.3795
17601THY    CA130481   1.800   8.050   5.877 -0.9194  0.6042 -0.7526
17601THY    CA230482   1.704   7.984   5.961 -0.1718 -0.1113 -0.1962
17601THY    CP130483   1.732   7.851   6.023  0.3346 -0.2691  0.5620
17601THY    HP130484   1.828   7.816   5.982  0.9957  1.4813  0.2090
17601THY    CP230485   1.623   7.749   5.979  0.3533  0.3345 -0.7907
17601THY    HP230486   1.673   7.653   5.966 -0.3943 -1.6186 -0.9573
17601THY    HP330487   1.572   7.776   5.885  2.0096 -0.5447 -0.5532
17601THY    HP430488   1.541   7.748   6.051 -0.5085 -0.5775  0.7568
17601THY    CP330489   1.737   7.843   6.180 -0.0997  0.7604 -0.4654
17601THY    HP530490   1.640   7.849   6.231 -0.2438  0.5204 -0.7804
17601THY    HP630491   1.783   7.934   6.222  1.1270 -1.4920  0.0255
17601THY    HP730492   1.793   7.755   6.212 -0.1913 -0.5118 -1.0001
17601THY    CA330493   1.582   8.051   5.987  0.2063  0.0364 -0.4030
17601THY    HA330494   1.496   8.015   6.042  0.9902  1.7444  0.2102
17601THY    CA430495   1.556   8.170   5.914 -0.2789  0.0801  0.5118
17601THY    HA430496   1.464   8.223   5.935  0.5484 -0.6514  2.3120
17601THY    CA530497   1.645   8.225   5.820  0.5136  0.1175 -0.8018
17601THY    CM130498   1.621   8.351   5.735  0.5062  0.6437  0.3967
17601THY    HM130499   1.693   8.352   5.652 -0.9350 -0.7069 -1.4460
17601THY    HM230500   1.625   8.448   5.786  1.1540 -1.0119  1.2783
17601THY    HM330501   1.520   8.348   5.691 -0.1453  1.8328  2.5437
17601THY    CA630502   1.774   8.167   5.810  0.8283 -0.1166 -0.4867
17601THY    HA630503   1.841   8.205   5.733 -0.6909  0.3010  3.4189
17602THY      O30504   6.451   1.935   6.746  0.1234  0.2598 -0.3153
17602THY     HO30505   6.505   2.007   6.782  0.4393 -0.7958 -0.0135
17602THY    CA130506   6.524   1.832   6.700  0.6134  0.0358  0.0134
17602THY    CA230507   6.470   1.702   6.701  0.7727  0.4264 -0.1944
17602THY    CP130508   6.337   1.663   6.767  0.4894 -0.3870  0.3178
17602THY    HP130509   6.280   1.750   6.801  0.1608 -1.2502  0.4515
17602THY    CP230510   6.364   1.571   6.883  0.4172  0.4831  0.2980
17602THY    HP230511   6.278   1.552   6.949 -0.2658 -0.9367 -1.8666
17602THY    HP330512   6.447   1.621   6.935 -0.7397  1.5619  1.1440
17602THY    HP430513   6.405   1.475   6.849 -1.3480  0.1690 -0.3747
17602THY    CP330514   6.241   1.597   6.663 -0.3069 -0.7989 -1.3451
17602THY    HP530515   6.162   1.559   6.728  0.5619  0.0149 -1.8163
17602THY    HP630516   6.286   1.512   6.610 -0.9345 -2.4955 -0.6549
17602THY    HP730517   6.214   1.676   6.593  0.0478 -0.4521 -0.9096
17602THY    CA330518   6.545   1.593   6.640 -0.0031 -0.5696  0.1008
17602THY    HA330519   6.512   1.490   6.650 -1.0435  1.6360  0.5837
17602THY    CA430520   6.677   1.622   6.586  0.1658  0.4956 -0.2568
17602THY    HA430521   6.748   1.546   6.552 -0.3786  0.7748 -0.9045
17602THY    CA530522   6.717   1.756   6.574 -0.3004 -0.5043 -0.3934
17602THY    CM130523   6.834   1.791   6.494  0.2554 -0.2903 -0.3309
17602THY    HM130524   6.836   1.730   6.404 -1.4477 -1.7337  1.5905
17602THY    HM230525   6.927   1.776   6.551  0.1840 -0.2878 -0.7867
17602THY    HM330526   6.829   1.898   6.471 -0.9603  0.7452 -0.1332
17602THY    CA630527   6.644   1.858   6.633 -0.1919 -0.0484  0.7048
17602THY    HA630528   6.685   1.959   6.630 -0.7513 -0.5739  0.9214
17603THY      O30529   6.617   7.944   4.257  0.6837  0.6755  0.1793
17603THY     HO30530   6.545   7.934   4.192  0.5736  0.9360 -0.8127
17603THY    CA130531   6.548   8.013   4.357  0.0057  0.5464  0.2203
17603THY    CA230532   6.579   7.990   4.496 -0.1474 -0.0742 -0.6384
17603THY    CP130533   6.696   7.893   4.531 -0.2567 -0.1230 -0.0262
17603THY    HP130534   6.717   7.833   4.441 -0.6688 -1.9124  2.3302
17603THY    CP230535   6.687   7.782   4.645 -0.2798 -0.2879 -0.4134
17603THY    HP230536   6.663   7.821   4.745 -0.0775  0.1168 -1.3005
17603THY    HP330537   6.784   7.731   4.654 -1.2049 -2.7221 -2.7810
17603THY    HP430538   6.614   7.703   4.630  0.0774  1.5904 -1.1477
17603THY    CP330539   6.817   7.981   4.548 -0.5561 -0.0657 -0.6144
17603THY    HP530540   6.897   7.914   4.581  0.0154 -0.9991 -0.4075
17603THY    HP630541   6.802   8.059   4.624  0.0310 -1.1051  0.5323
17603THY    HP730542   6.848   8.031   4.456 -0.4524  0.6510  0.6806
17603THY    CA330543   6.510   8.067   4.596  0.7074 -0.7224  0.2903
17603THY    HA330544   6.534   8.053   4.701 -1.2401 -0.0395  1.6185
17603THY    CA430545   6.403   8.150   4.554  0.7917  0.6144  0.0676
17603THY    HA430546   6.332   8.177   4.633  1.5839  0.9069  1.4269
17603THY    CA530547   6.368   8.156   4.415  0.7887  0.0706 -0.0352
17603THY    CM130548   6.261   8.250   4.373 -0.7023  0.9665  0.7525
17603THY    HM130549   6.182   8.193   4.323  0.1877  0.0216  0.2993
17603THY    HM230550   6.300   8.334   4.314 -0.2215  2.1992  1.4163
17603THY    HM330551   6.219   8.302   4.459 -3.2331  1.6627 -2.2050
17603THY    CA630552   6.440   8.088   4.315 -0.4050 -0.4004  0.8322
17603THY    HA630553   6.422   8.093   4.208  0.6801 -0.6679 -0.4484
17604THY      O30554   6.645   6.514   4.390  0.7136  0.4647  0.1177
17604THY     HO30555   6.571   6.482   4.336  0.3542 -0.3921  2.2556
17604THY    CA130556   6.576   6.577   4.489  0.7271  0.0786  0.9143
17604THY    CA230557   6.605   6.696   4.553  0.5830  0.1822  0.2532
17604THY    CP130558   6.741   6.775   4.525 -0.5436 -0.6207  0.0017
17604THY    HP130559   6.773   6.735   4.428 -0.5318 -0.7661  0.3584
17604THY    CP230560   6.836   6.740   4.641 -0.0172  0.3986 -0.6988
17604THY    HP230561   6.930   6.796   4.639  0.0972 -2.6933 -0.8170
17604THY    HP330562   6.868   6.636   4.628  3.6701  1.7230  0.1276
17604THY    HP430563   6.773   6.757   4.729 -0.1779 -0.2249  2.5138
17604THY    CP330564   6.734   6.926   4.515  0.0061 -0.2853 -0.4789
17604THY    HP530565   6.669   6.974   4.590 -0.2626  0.1184 -1.4509
17604THY    HP630566   6.710   6.950   4.411 -0.4432  0.1199  0.9711
17604THY    HP730567   6.835   6.968   4.525 -1.3142 -0.5592  3.1257
17604THY    CA330568   6.509   6.755   4.642 -0.6734  0.7431 -0.4482
17604THY    HA330569   6.515   6.855   4.683 -1.3827  0.8718 -0.4510
17604THY    CA430570   6.383   6.696   4.650  0.2819 -0.3671 -0.5074
17604THY    HA430571   6.308   6.754   4.703 -1.4538 -2.4713 -0.6789
17604THY    CA530572   6.347   6.578   4.584 -1.5572 -0.0215 -0.8126
17604THY    CM130573   6.204   6.533   4.592 -0.4704 -0.3434 -0.3192
17604THY    HM130574   6.138   6.613   4.628  2.2654 -0.2546  2.0718
17604THY    HM230575   6.199   6.441   4.651 -1.8351 -0.2579 -0.2201
17604THY    HM330576   6.165   6.502   4.494  0.4557 -0.7135 -0.3402
17604THY    CA630577   6.447   6.520   4.503 -0.1973 -0.4141  0.4582
17604THY    HA630578   6.428   6.435   4.438 -1.4481 -2.4061  2.1687
17605THY      O30579   3.725   9.102   3.982  0.1113  0.3038  0.6773
17605THY     HO30580   3.809   9.147   3.959  0.5447  0.3719 -0.0732
17605THY    CA130581   3.640   9.129   3.883 -0.1702  0.3067 -0.4019
17605THY    CA230582   3.512   9.079   3.879 -0.6194 -0.1887 -0.1511
17605THY    CP130583   3.463   8.986   3.997  0.1244  0.7020 -0.2481
17605THY    HP130584   3.537   8.983   4.078 -0.1400  0.9596  0.0096
17605THY    CP230585   3.427   8.840   3.960 -0.4635  0.0935  0.8947
17605THY    HP230586   3.362   8.831   3.872  0.1834 -0.3596  0.6038
17605THY    HP330587   3.385   8.783   4.044  1.1164  1.3331  1.5048
17605THY    HP430588   3.522   8.790   3.939 -0.0534 -0.2498  1.8077
17605THY    CP330589   3.341   9.062   4.050 -1.1641 -0.2548  0.0118
17605THY    HP530590   3.343   9.031   4.155  2.4334 -0.0558  0.4744
17605THY    HP630591   3.242   9.036   4.011 -0.6266 -1.5357 -0.1505
17605THY    HP730592   3.359   9.170   4.041 -1.3682 -1.3074 -0.0352
17605THY    CA330593   3.427   9.111   3.774  0.2110  0.7553  0.1136
17605THY    HA330594   3.326   9.071   3.766  0.2882 -1.6638  0.2563
17605THY    CA430595   3.478   9.197   3.676 -0.3743 -0.1383  0.8336
17605THY    HA430596   3.414   9.243   3.602 -0.4368 -0.0618  0.8686
17605THY    CA530597   3.609   9.248   3.682 -0.3187  0.1272 -0.1805
17605THY    CM130598   3.659   9.336   3.576 -0.5744  0.0174  0.0244
17605THY    HM130599   3.766   9.355   3.584 -0.5680  0.2612 -0.1096
17605THY    HM230600   3.597   9.426   3.573  0.7240  1.3134  1.0042
17605THY    HM330601   3.652   9.282   3.480  1.7839  1.5502 -3.3721
17605THY    CA630602   3.690   9.211   3.780 -0.2917  0.0647  0.0957
17605THY    HA630603   3.792   9.245   3.796 -0.2528  4.2210 -1.3328
17606THY      O30604   2.128   1.858   5.629  0.0657 -0.0256  0.1265
17606THY     HO30605   2.071   1.797   5.579 -1.2569  0.8979  0.5489
17606THY    CA130606   2.045   1.931   5.707  0.0259 -0.5768  0.4602
17606THY    CA230607   2.094   2.050   5.773 -0.3107  0.3401 -0.2107
17606THY    CP130608   2.240   2.082   5.749  0.1513 -0.2289 -0.3568
17606THY    HP130609   2.282   2.030   5.662  1.2260 -0.4811  0.8633
17606THY    CP230610   2.328   2.050   5.869  0.4058  0.4103  0.0876
17606THY    HP230611   2.298   2.092   5.966  2.0236  0.0668  2.1536
17606THY    HP330612   2.431   2.078   5.845 -0.1243  0.6559  2.4512
17606THY    HP430613   2.327   1.940   5.873 -0.2969 -0.3858  0.0545
17606THY    CP330614   2.267   2.223   5.694  0.8150 -1.3907 -0.1791
17606THY    HP530615   2.197   2.249   5.614  2.0656 -2.2183  0.6945
17606THY    HP630616   2.369   2.235   5.656  0.9151 -0.6221  1.8171
17606THY    HP730617   2.242   2.297   5.771  0.4533 -1.4843 -0.1998
17606THY    CA330618   2.014   2.118   5.863 -0.3277 -0.0999  0.7612
17606THY    HA330619   2.059   2.192   5.929 -0.5924  1.0141 -0.0319
17606THY    CA430620   1.880   2.070   5.878  0.6931 -0.2086  0.5263
17606THY    HA430621   1.815   2.126   5.945 -1.2500 -0.9864 -0.6920
17606THY    CA530622   1.836   1.954   5.813 -0.1291  0.5159  0.2134
17606THY    CM130623   1.700   1.902   5.834  0.1127  0.2976  0.2433
17606THY    HM130624   1.626   1.979   5.862  0.4332 -2.4723  1.6669
17606THY    HM230625   1.703   1.830   5.917  3.5492 -2.0182 -2.5743
17606THY    HM330626   1.668   1.857   5.740  0.5140  1.0528 -1.7036
17606THY    CA630627   1.917   1.875   5.734  0.0937  0.6373 -0.1834
17606THY    HA630628   1.887   1.780   5.692  1.4656 -1.8123  0.3973
17607THY      O30629   8.914   8.569   6.850 -0.1902 -0.9414 -0.3793
17607THY     HO30630   8.861   8.592   6.772 -0.1871 -0.6114  0.8319
17607THY    CA130631   9.045   8.548   6.814  0.0816 -0.3218 -0.4277
17607THY    CA230632   9.141   8.510   6.911 -0.5643 -0.2021  0.2703
17607THY    CP130633   9.089   8.466   7.052  0.2836  0.2366 -0.6861
17607THY    HP130634   9.018   8.536   7.097  1.7596  1.0047  0.3736
17607THY    CP230635   9.201   8.467   7.157  0.6801  0.5115  0.0400
17607THY    HP230636   9.166   8.420   7.250  1.7654  0.9267  0.0264
17607THY    HP330637   9.235   8.570   7.174  0.1901 -1.8551  0.6544
17607THY    HP430638   9.288   8.411   7.121 -1.9458  0.0544 -4.1661
17607THY    CP330639   9.042   8.318   7.025  0.4662 -0.1212  0.4992
17607THY    HP530640   9.117   8.271   6.962  1.6753  0.7194  1.2369
17607THY    HP630641   8.954   8.320   6.959 -0.0745  0.3192 -3.0058
17607THY    HP730642   9.025   8.255   7.113  2.1638 -1.4991 -2.0143
17607THY    CA330643   9.275   8.497   6.866  0.0839 -0.2397  1.2054
17607THY    HA330644   9.354   8.457   6.929 -2.7015  2.1272 -1.0102
17607THY    CA430645   9.301   8.514   6.731  0.2990  0.3033  0.9986
17607THY    HA430646   9.397   8.475   6.699 -1.1520  0.7679 -3.5615
17607THY    CA530647   9.204   8.551   6.639  0.3845 -0.0995  0.4139
17607THY    CM130648   9.243   8.562   6.497 -1.0354 -0.5052 -0.4347
17607THY    HM130649   9.317   8.495   6.451 -0.6405 -1.3041  0.5113
17607THY    HM230650   9.256   8.667   6.467  0.9827 -0.8108 -0.7275
17607THY    HM330651   9.151   8.540   6.441 -2.3779 -0.4546  4.0125
17607THY    CA630652   9.074   8.568   6.681  0.6291 -0.3583 -0.4968
17607THY    HA630653   8.992   8.600   6.616 -0.4380  1.6966  1.2155
17608THY      O30654   3.154   2.969   3.601  0.0270  0.0400  0.6713
17608THY     HO30655   3.246   2.991   3.626 -0.5285  1.0114  2.0475
17608THY    CA130656   3.097   2.970   3.721  0.4347  0.1877  0.0475
17608THY    CA230657   2.982   2.895   3.748 -0.2571  0.0496 -0.2506
17608THY    CP130658   2.927   2.796   3.642  0.0808  0.1774  0.2151
17608THY    HP130659   2.991   2.796   3.553 -0.5126 -0.2742  1.6836
17608THY    CP230660   2.788   2.831   3.597  0.3463 -0.2106 -1.0769
17608THY    HP230661   2.724   2.783   3.672  1.3914  1.1272 -0.4401
17608THY    HP330662   2.762   2.788   3.499  1.6035 -0.0395 -2.3001
17608THY    HP430663   2.784   2.941   3.595  2.9674  0.2321 -0.9121
17608THY    CP330664   2.922   2.649   3.695 -0.1013  0.3319  0.0948
17608THY    HP530665   3.020   2.633   3.740 -1.0561  2.7937  0.6817
17608THY    HP630666   2.893   2.582   3.613 -1.2257  2.1994 -1.8181
17608THY    HP730667   2.840   2.649   3.768 -0.9954 -0.6311  0.7161
17608THY    CA330668   2.911   2.923   3.872  0.4584  0.3176  0.1235
17608THY    HA330669   2.810   2.886   3.884 -0.2835 -1.5673  1.3628
17608THY    CA430670   2.959   3.023   3.961  0.5880  0.3620 -0.1534
17608THY    HA430671   2.910   3.060   4.051  1.1703  0.9732 -0.8274
17608THY    CA530672   3.080   3.093   3.936  0.4056  1.2749  0.1578
17608THY    CM130673   3.142   3.195   4.027 -0.1336  0.7007 -0.5460
17608THY    HM130674   3.146   3.164   4.132  2.3951  1.2179  1.2849
17608THY    HM230675   3.086   3.288   4.013 -0.8379  1.3028 -0.8670
17608THY    HM330676   3.247   3.216   4.006 -0.6602 -2.4568 -0.5843
17608THY    CA630677   3.144   3.071   3.806  0.0586 -0.6446  0.7556
17608THY    HA630678   3.227   3.135   3.778 -0.6235 -0.8537  1.5698
17609THY      O30679   5.276   6.338   3.071 -0.1012 -0.2323 -0.4726
17609THY     HO30680   5.308   6.327   2.980  0.5939 -0.0040 -0.3802
17609THY    CA130681   5.142   6.349   3.080 -0.6289  0.2484 -0.3948
17609THY    CA230682   5.087   6.376   3.207 -0.3864  1.0349 -0.4630
17609THY    CP130683   5.182   6.373   3.326 -0.0321 -0.1471 -0.5530
17609THY    HP130684   5.284   6.341   3.300  0.0945 -0.2898 -0.0391
17609THY    CP230685   5.142   6.270   3.439  0.0018  0.8718  0.3650
17609THY    HP230686   5.056   6.302   3.498  0.0344  0.0241  2.0946
17609THY    HP330687   5.222   6.242   3.508  1.2895  0.0671  1.9269
17609THY    HP430688   5.113   6.172   3.399  0.5260  1.9929 -0.2680
17609THY    CP330689   5.190   6.515   3.396 -1.2056 -0.5243  0.8579
17609THY    HP530690   5.218   6.589   3.320 -1.4077  1.9119  3.6170
17609THY    HP630691   5.257   6.506   3.482  1.2368 -2.4981 -1.4212
17609THY    HP730692   5.094   6.532   3.446 -0.6972  1.0358 -0.5720
17609THY    CA330693   4.948   6.394   3.212  0.5085 -0.1632  0.1688
17609THY    HA330694   4.904   6.398   3.312  0.2806 -0.3241  2.5429
17609THY    CA430695   4.874   6.405   3.097 -0.3693  1.0487 -0.5467
17609THY    HA430696   4.769   6.433   3.105 -0.4249 -0.9511 -0.0199
17609THY    CA530697   4.928   6.387   2.965 -0.6214 -0.0100 -0.2089
17609THY    CM130698   4.841   6.389   2.850 -0.4446  0.3311 -0.6130
17609THY    HM130699   4.859   6.301   2.788 -2.5348 -0.3409 -0.6215
17609THY    HM230700   4.863   6.477   2.790 -3.0417 -1.2435 -0.9290
17609THY    HM330701   4.736   6.365   2.874 -0.5257 -0.9354 -1.6290
17609THY    CA630702   5.068   6.344   2.961 -0.0611  0.0354  0.5067
17609THY    HA630703   5.111   6.316   2.865  1.5872  1.1631 -1.0208
17610THY      O30704   5.582   3.259   3.892  0.5904 -0.3423 -0.3777
17610THY     HO30705   5.601   3.326   3.960  2.4669 -0.7943 -0.4068
17610THY    CA130706   5.612   3.302   3.771 -0.0318  1.1738  0.4214
17610THY    CA230707   5.563   3.236   3.651 -0.7233  0.0309 -0.4922
17610THY    CP130708   5.463   3.118   3.655  0.3679 -0.7860 -0.4897
17610THY    HP130709   5.482   3.064   3.749 -2.5784  1.1503  1.5230
17610THY    CP230710   5.486   3.019   3.546 -0.5439 -0.0537  0.0774
17610THY    HP230711   5.421   2.934   3.569 -0.5078  2.4955  0.6574
17610THY    HP330712   5.592   2.991   3.541 -0.7640 -1.2168 -0.6102
17610THY    HP430713   5.462   3.053   3.444  1.0772 -0.6303 -0.4391
17610THY    CP330714   5.319   3.176   3.655  0.8880  0.0434 -0.0647
17610THY    HP530715   5.315   3.238   3.564  3.6125 -1.4751 -1.9202
17610THY    HP630716   5.288   3.234   3.742 -0.7185  0.7863 -1.9157
17610THY    HP730717   5.244   3.096   3.654  2.3413  1.9611 -1.5429
17610THY    CA330718   5.602   3.282   3.527  0.2767  0.4689  0.1378
17610THY    HA330719   5.579   3.228   3.435  2.3706 -1.1774  1.8414
17610THY    CA430720   5.691   3.398   3.514 -0.0774  0.6789  0.4512
17610THY    HA430721   5.724   3.423   3.413 -2.8610 -0.4474  0.0062
17610THY    CA530722   5.733   3.461   3.632  0.4580 -0.3700  0.3376
17610THY    CM130723   5.820   3.578   3.626  0.4970 -0.0628 -0.5358
17610THY    HM130724   5.924   3.562   3.596  1.7725  3.5188  0.2104
17610THY    HM230725   5.822   3.637   3.718 -2.4548  1.4787 -2.5859
17610THY    HM330726   5.780   3.647   3.550 -0.3855  0.1278 -0.8249
17610THY    CA630727   5.695   3.418   3.761  0.2530 -0.2660  0.1111
17610THY    HA630728   5.729   3.472   3.849 -1.5728  0.6792 -0.1893
17611THY      O30729   4.016   6.530   6.725  0.0423  0.2643  0.6732
17611THY     HO30730   4.069   6.471   6.669 -0.0669  1.1146 -0.2665
17611THY    CA130731   3.937   6.598   6.643  0.1905  0.3623 -0.5908
17611THY    CA230732   3.828   6.673   6.700 -0.3153 -0.4393 -0.7519
17611THY    CP130733   3.803   6.684   6.858 -0.5764  0.0066 -0.1283
17611THY    HP130734   3.896   6.661   6.912 -1.8832  2.7395  0.6782
17611THY    CP230735   3.690   6.597   6.908  0.0247 -0.3262  0.5058
17611THY    HP230736   3.713   6.492   6.886 -0.1675  2.7239 -0.2961
17611THY    HP330737   3.600   6.625   6.853 -0.1660 -1.4824 -2.0946
17611THY    HP430738   3.676   6.604   7.017  3.0956  0.1320  0.6944
17611THY    CP330739   3.779   6.829   6.911 -0.7818  0.4948 -0.9164
17611THY    HP530740   3.877   6.877   6.920 -1.5307 -1.0646  1.0763
17611THY    HP630741   3.737   6.850   7.010 -0.4721 -0.1748  4.2128
17611THY    HP730742   3.731   6.902   6.844  0.3332 -0.1413 -0.7561
17611THY    CA330743   3.740   6.734   6.610  0.4180  0.5076 -0.2511
17611THY    HA330744   3.661   6.798   6.647  2.8164  1.0128  2.6378
17611THY    CA430745   3.750   6.711   6.472  0.1123  0.1383  0.1733
17611THY    HA430746   3.684   6.753   6.397  0.8752 -0.9123 -0.4423
17611THY    CA530747   3.867   6.643   6.419  0.2543  0.5195 -0.5589
17611THY    CM130748   3.892   6.616   6.280 -0.5065  0.2436 -0.0644
17611THY    HM130749   3.801   6.580   6.233 -0.3449 -1.1684  1.2615
17611THY    HM230750   3.974   6.543   6.274 -0.9691  1.5146 -0.7040
17611THY    HM330751   3.910   6.709   6.224 -0.6296 -0.3051 -0.3722
17611THY    CA630752   3.946   6.587   6.509 -0.0487 -0.4612  0.3355
17611THY    HA630753   4.042   6.549   6.473 -0.4627 -0.2615 -0.9523
17612THY      O30754   2.937   6.471   2.345 -1.0555 -0.0188 -0.2099
17612THY     HO30755   2.975   6.532   2.410 -1.2758 -0.3473  0.2854
17612THY    CA130756   2.802   6.465   2.353  0.1494 -0.2125  0.2211
17612THY    CA230757   2.728   6.416   2.240  0.5542  0.4828 -0.1203
17612THY    CP130758   2.784   6.381   2.102  0.2944 -0.4617  0.1543
17612THY    HP130759   2.893   6.390   2.104  0.4308  0.3755 -1.2141
17612THY    CP230760   2.725   6.483   2.001  0.4456 -0.0594 -0.4041
17612THY    HP230761   2.710   6.584   2.042  0.8065  2.0141 -1.1504
17612THY    HP330762   2.623   6.453   1.978 -1.8062  3.2677  3.6259
17612THY    HP430763   2.797   6.504   1.920  0.1413 -0.1556  0.2799
17612THY    CP330764   2.757   6.233   2.054 -0.3573 -0.0174 -0.3106
17612THY    HP530765   2.664   6.232   1.997 -0.6729  0.4378  0.9489
17612THY    HP630766   2.744   6.172   2.144  1.7637  0.4180 -0.2178
17612THY    HP730767   2.843   6.193   1.998 -0.5902 -0.0110 -0.8197
17612THY    CA330768   2.590   6.409   2.260 -0.3776  0.4583  0.0046
17612THY    HA330769   2.521   6.381   2.180 -2.5699  2.2127  0.0795
17612THY    CA430770   2.534   6.439   2.384  0.3229  0.2145 -0.5268
17612THY    HA430771   2.427   6.427   2.399  0.6777  3.2862 -0.5740
17612THY    CA530772   2.611   6.481   2.491 -0.2315  0.4422 -0.0612
17612THY    CM130773   2.548   6.519   2.620 -0.4755  0.6705 -0.4928
17612THY    HM130774   2.449   6.476   2.636 -0.5965  0.5312 -0.2690
17612THY    HM230775   2.533   6.628   2.619  0.8568 -1.2066 -0.2745
17612THY    HM330776   2.613   6.493   2.704 -0.5843  1.9080  2.7888
17612THY    CA630777   2.750   6.494   2.475  0.0824 -0.5448  0.5861
17612THY    HA630778   2.805   6.551   2.549  0.8905  1.2368 -2.2961
17613THY      O30779   3.992   6.235   3.104 -0.2445 -0.0461 -0.3657
17613THY     HO30780   4.073   6.212   3.152  0.0900 -1.2515 -1.8027
17613THY    CA130781   3.993   6.167   2.988 -0.1484  0.1201  1.2670
17613THY    CA230782   3.938   6.216   2.868  0.5423 -0.0841  0.3452
17613THY    CP130783   3.837   6.336   2.872 -1.1584  0.3853  0.4756
17613THY    HP130784   3.821   6.371   2.974 -0.4381  0.3817  0.8244
17613THY    CP230785   3.703   6.291   2.815 -0.0125 -0.8904 -0.4217
17613THY    HP230786   3.631   6.372   2.828  0.0861  1.7563 -0.6611
17613THY    HP330787   3.657   6.221   2.885 -0.6403 -1.2272 -0.3494
17613THY    HP430788   3.716   6.257   2.712  1.2368 -0.9537  0.1904
17613THY    CP330789   3.902   6.460   2.813  0.2284  0.1393  0.3192
17613THY    HP530790   3.979   6.501   2.878 -0.7942  1.6712 -0.1192
17613THY    HP630791   3.827   6.539   2.798  0.3087 -2.3084  0.0371
17613THY    HP730792   3.931   6.447   2.708  1.8339  0.2901  2.2351
17613THY    CA330793   3.958   6.151   2.751 -0.1127 -0.3417 -0.1326
17613THY    HA330794   3.930   6.204   2.660  1.8742  0.5076  2.5990
17613THY    CA430795   4.024   6.024   2.758 -0.3524 -0.4477  1.0929
17613THY    HA430796   4.040   5.970   2.665  1.9048  1.2003 -1.2629
17613THY    CA530797   4.074   5.973   2.881 -0.3318  0.8361 -0.0809
17613THY    CM130798   4.135   5.842   2.887  0.1629 -0.1837 -0.1540
17613THY    HM130799   4.238   5.850   2.852 -0.1451 -1.1573 -0.2528
17613THY    HM230800   4.085   5.776   2.815  1.6955 -1.2870 -0.1672
17613THY    HM330801   4.119   5.801   2.987 -2.1453 -0.9816 -1.3618
17613THY    CA630802   4.059   6.047   2.994 -0.7073  0.2646 -0.1392
17613THY    HA630803   4.081   6.007   3.093 -0.2435  0.1409 -0.2013
17614THY      O30804   2.875   1.983   4.578 -0.2862 -0.3204  0.2200
17614THY     HO30805   2.952   1.955   4.630 -0.4019 -0.2794 -0.0218
17614THY    CA130806   2.842   1.898   4.483  0.6838 -0.3184 -0.1128
17614THY    CA230807   2.721   1.916   4.405 -0.8028  1.2641 -0.1180
17614THY    CP130808   2.616   2.021   4.446 -0.9462 -0.4032 -0.3952
17614THY    HP130809   2.668   2.083   4.521  1.8880 -0.5445 -2.4412
17614THY    CP230810   2.501   1.954   4.525  0.1015 -0.5423 -0.1552
17614THY    HP230811   2.418   2.021   4.551 -0.0036  3.1085 -1.4805
17614THY    HP330812   2.543   1.904   4.613 -0.9268  0.7700  1.1941
17614THY    HP430813   2.454   1.874   4.466  1.0353 -1.0380 -0.3487
17614THY    CP330814   2.567   2.112   4.333  0.2557  0.6621 -0.2832
17614THY    HP530815   2.496   2.181   4.379  1.3601  0.7927  0.7969
17614THY    HP630816   2.521   2.043   4.262  0.0907  0.2081  0.2856
17614THY    HP730817   2.647   2.170   4.285 -0.5107 -1.6113 -1.0115
17614THY    CA330818   2.699   1.819   4.300 -0.1044  0.3476  0.3079
17614THY    HA330819   2.606   1.823   4.243 -0.7181  1.1587 -1.4533
17614THY    CA430820   2.786   1.722   4.271  0.1416 -0.2448  0.0076
17614THY    HA430821   2.746   1.660   4.192 -1.5891 -0.7192  1.6215
17614THY    CA530822   2.896   1.702   4.350 -0.3734  0.0106  0.1797
17614THY    CM130823   2.994   1.598   4.327 -0.1277 -0.1107  0.4144
17614THY    HM130824   3.020   1.549   4.421 -1.0668  0.5975  1.2308
17614THY    HM230825   3.077   1.644   4.272 -1.1057 -0.1837  2.1912
17614THY    HM330826   2.961   1.532   4.246  1.9346 -2.0635  1.6251
17614THY    CA630827   2.928   1.789   4.455  0.2562  0.3816  0.9692
17614THY    HA630828   3.008   1.767   4.525  0.4306 -0.4481 -1.3990
17615THY      O30829   9.473   3.113   5.175  0.0445 -0.4385  0.3575
17615THY     HO30830   9.497   3.194   5.126  1.2159  0.6720  0.7172
17615THY    CA130831   9.366   3.055   5.116 -0.0810  0.1943 -0.0903
17615THY    CA230832   9.286   2.966   5.182  0.1260  0.3108 -1.0169
17615THY    CP130833   9.303   2.930   5.326  0.0500 -0.0800 -0.2592
17615THY    HP130834   9.394   2.970   5.371 -0.6615  0.3644  0.9221
17615THY    CP230835   9.311   2.785   5.357  0.9160  0.3312  0.0907
17615THY    HP230836   9.317   2.753   5.462 -0.3225  0.2232 -0.5887
17615THY    HP330837   9.390   2.732   5.303 -1.1476  0.0113 -2.9190
17615THY    HP430838   9.216   2.742   5.322  0.5428  1.2879  0.0992
17615THY    CP330839   9.188   2.987   5.401 -0.6118 -0.6962 -0.1329
17615THY    HP530840   9.173   3.094   5.384 -0.1980 -0.3419 -0.0166
17615THY    HP630841   9.221   2.992   5.506 -0.2094 -0.8018 -0.4447
17615THY    HP730842   9.094   2.931   5.402  0.1673  0.0958 -1.4724
17615THY    CA330843   9.171   2.907   5.116  0.0402  0.1853 -0.1471
17615THY    HA330844   9.105   2.840   5.171 -0.2524 -0.2612 -0.2340
17615THY    CA430845   9.139   2.946   4.987 -1.0569 -0.2541 -0.8354
17615THY    HA430846   9.056   2.903   4.930 -0.2332 -0.5998 -2.0438
17615THY    CA530847   9.220   3.039   4.918  0.8114  0.2359  0.1079
17615THY    CM130848   9.190   3.076   4.774 -0.1046 -0.3195 -0.1742
17615THY    HM130849   9.279   3.095   4.714 -0.1980 -0.9615 -1.6639
17615THY    HM230850   9.123   3.163   4.769  0.4834 -0.7572  0.2633
17615THY    HM330851   9.127   2.997   4.730  1.3771 -1.9649 -0.4982
17615THY    CA630852   9.335   3.091   4.979  0.4295  0.9048 -0.5856
17615THY    HA630853   9.392   3.168   4.928 -3.7556 -0.7611  1.7451
17616THY      O30854   8.246   2.123   6.534 -0.5697  0.4780  0.0256
17616THY     HO30855   8.306   2.110   6.609 -1.7264  1.8189  1.8779
17616THY    CA130856   8.314   2.206   6.456 -0.6271  0.2754 -0.1858
17616THY    CA230857   8.269   2.243   6.326 -0.2627 -0.0047  0.1969
17616THY    CP130858   8.139   2.187   6.269  0.3235  0.1406 -0.1721
17616THY    HP130859   8.134   2.079   6.287 -0.1814 -1.2138 -0.3923
17616THY    CP230860   8.118   2.215   6.118 -0.2712  0.2405 -0.5856
17616THY    HP230861   8.211   2.196   6.064  1.4106  1.9972  2.0755
17616THY    HP330862   8.089   2.319   6.098  0.6203  2.1137  0.0618
17616THY    HP430863   8.036   2.153   6.079  0.9797 -4.0962  0.1609
17616THY    CP330864   8.027   2.262   6.339 -0.0712 -0.3975  0.0647
17616THY    HP530865   8.039   2.366   6.307 -1.1837 -2.3406 -0.3379
17616THY    HP630866   8.041   2.250   6.447  0.8769 -0.4641  0.4959
17616THY    HP730867   7.928   2.229   6.304 -0.6410  0.4374  0.8518
17616THY    CA330868   8.355   2.331   6.257 -0.6363 -0.7235 -0.1952
17616THY    HA330869   8.328   2.379   6.163  0.0344  0.5237  2.8191
17616THY    CA430870   8.480   2.373   6.305 -0.7433 -0.1540 -0.1173
17616THY    HA430871   8.547   2.433   6.244 -1.5545 -0.8584  0.1071
17616THY    CA530872   8.507   2.337   6.442  0.9811  0.1579 -0.1297
17616THY    CM130873   8.639   2.369   6.504 -1.0975 -0.7075  0.3924
17616THY    HM130874   8.679   2.470   6.491  0.5498  0.5945 -0.0303
17616THY    HM230875   8.710   2.297   6.461  0.1077 -0.1764  1.2382
17616THY    HM330876   8.653   2.357   6.612 -0.8151 -0.4139  2.8102
17616THY    CA630877   8.427   2.261   6.518 -0.3908  0.3060  0.5062
17616THY    HA630878   8.456   2.242   6.621  2.2996 -0.4352  0.2846
17617THY      O30879   7.587   5.214   6.981  0.6600 -0.1729  0.2640
17617THY     HO30880   7.589   5.307   7.008 -1.1122 -0.1311  0.3135
17617THY    CA130881   7.618   5.132   7.082  0.4717  0.1489  0.3163
17617THY    CA230882   7.605   5.172   7.215 -0.4963  0.1946  0.2703
17617THY    CP130883   7.554   5.306   7.264 -0.5191 -0.4771  0.4017
17617THY    HP130884   7.565   5.380   7.184  0.1301 -1.2519 -0.5092
17617THY    CP230885   7.626   5.371   7.386 -0.2345  0.4605  0.4287
17617THY    HP230886   7.606   5.478   7.379  0.0532  1.6944  0.5843
17617THY    HP330887   7.735   5.357   7.379  0.1157 -0.7446  3.1821
17617THY    HP430888   7.594   5.317   7.476  1.2605  0.2701 -0.8520
17617THY    CP330889   7.404   5.299   7.315 -0.1662  1.0003  0.1659
17617THY    HP530890   7.362   5.400   7.324 -1.0486  2.8111 -0.3112
17617THY    HP630891   7.394   5.251   7.413 -1.1779 -0.4037 -2.7053
17617THY    HP730892   7.340   5.244   7.245  1.6502  1.3250 -2.5275
17617THY    CA330893   7.657   5.087   7.312  0.3081  0.1217  0.3551
17617THY    HA330894   7.665   5.117   7.416  1.1743 -0.3231  1.8164
17617THY    CA430895   7.694   4.955   7.283  0.4015  0.5726 -0.3448
17617THY    HA430896   7.730   4.895   7.366  2.3588 -0.6706 -0.9427
17617THY    CA530897   7.686   4.910   7.153  0.1128 -0.2043 -0.4087
17617THY    CM130898   7.711   4.763   7.120 -0.6879 -0.4156  0.2407
17617THY    HM130899   7.675   4.693   7.196  2.5526 -0.6176 -1.8635
17617THY    HM230900   7.819   4.747   7.127 -0.8157  4.7596 -0.0216
17617THY    HM330901   7.660   4.730   7.029 -2.2236 -0.1130  1.6296
17617THY    CA630902   7.652   5.001   7.048 -0.0209  0.1768 -0.2232
17617THY    HA630903   7.662   4.972   6.944  2.0426  0.1214  0.5416
17618THY      O30904   7.087   2.663   2.291 -0.2044 -0.0835  0.0187
17618THY     HO30905   6.996   2.685   2.317 -0.2437  0.2850 -0.5381
17618THY    CA130906   7.109   2.528   2.316  0.3895  0.0236 -0.4408
17618THY    CA230907   7.238   2.469   2.319 -0.2099 -0.2429 -0.4091
17618THY    CP130908   7.355   2.563   2.292  0.6174  0.8193 -0.3845
17618THY    HP130909   7.322   2.662   2.323 -1.7362 -0.9102 -0.5306
17618THY    CP230910   7.383   2.581   2.144 -0.1565 -0.0161  0.2699
17618THY    HP230911   7.309   2.648   2.098 -0.4551 -0.6891 -0.5049
17618THY    HP330912   7.390   2.479   2.106 -0.0629 -1.1200  0.6788
17618THY    HP430913   7.479   2.634   2.135 -0.4409 -0.7066  0.6774
17618THY    CP330914   7.480   2.513   2.365  0.6340 -0.6354  0.0182
17618THY    HP530915   7.505   2.408   2.344 -3.3595 -0.1285 -1.1974
17618THY    HP630916   7.459   2.531   2.471 -1.1958 -0.8297 -0.7507
17618THY    HP730917   7.571   2.571   2.347  0.8649 -0.5669 -0.3200
17618THY    CA330918   7.249   2.326   2.330  0.6096  0.3469 -0.4063
17618THY    HA330919   7.342   2.269   2.323 -0.1231 -0.7184 -1.4906
17618THY    CA430920   7.129   2.255   2.338  0.2468 -0.0120  0.0415
17618THY    HA430921   7.141   2.149   2.360  0.8142 -1.4979 -0.2402
17618THY    CA530922   7.006   2.315   2.333  0.6428 -0.3665  0.2412
17618THY    CM130923   6.879   2.235   2.355 -0.0265  0.3230 -0.2582
17618THY    HM130924   6.892   2.177   2.447 -0.3957  2.4232  2.7422
17618THY    HM230925   6.857   2.170   2.269  2.6328 -0.1660 -0.6327
17618THY    HM330926   6.801   2.311   2.359  1.6025 -4.2370  2.0426
17618THY    CA630927   6.995   2.450   2.307 -0.5754 -0.5381  0.5437
17618THY    HA630928   6.898   2.492   2.285 -1.9764 -1.0685 -2.7059
17619THY      O30929   0.830   7.523   5.684  0.4726 -0.2663  0.1673
17619THY     HO30930   0.878   7.605   5.668 -1.2571 -0.8242  1.1149
17619THY    CA130931   0.857   7.444   5.584 -0.4799 -0.6184 -0.0882
17619THY    CA230932   0.798   7.319   5.565 -0.1056  0.2793  0.1371
17619THY    CP130933   0.691   7.263   5.660  0.1577  0.2669  0.2462
17619THY    HP130934   0.703   7.315   5.755  1.0271 -0.4971  1.5197
17619THY    CP230935   0.711   7.112   5.689 -0.2498  0.6069  0.5868
17619THY    HP230936   0.692   7.064   5.592 -0.0125  0.1269  1.4342
17619THY    HP330937   0.641   7.089   5.770 -0.2497  0.1523 -1.1743
17619THY    HP430938   0.814   7.090   5.719  0.0391 -0.6384  0.1221
17619THY    CP330939   0.545   7.289   5.611  0.6864  0.2648 -0.3146
17619THY    HP530940   0.545   7.397   5.592 -0.0225 -0.4616 -0.4257
17619THY    HP630941   0.469   7.255   5.683  0.4167 -0.7447 -1.9549
17619THY    HP730942   0.530   7.238   5.515  1.2791 -0.6869  1.2596
17619THY    CA330943   0.837   7.247   5.455  0.6282 -0.0472  0.4959
17619THY    HA330944   0.787   7.156   5.425 -0.4492 -3.5574  2.0624
17619THY    CA430945   0.943   7.286   5.374 -0.0740 -0.1858  0.0888
17619THY    HA430946   0.969   7.227   5.287  0.7462  0.2171 -0.1550
17619THY    CA530947   1.008   7.412   5.397 -0.1735 -0.9658  0.6666
17619THY    CM130948   1.128   7.461   5.320 -0.1919 -0.4235  0.5908
17619THY    HM130949   1.229   7.449   5.362 -1.4144  1.9725 -2.4330
17619THY    HM230950   1.117   7.568   5.297 -0.9575  0.6026  0.7487
17619THY    HM330951   1.134   7.404   5.227  0.8615 -0.6608  1.0531
17619THY    CA630952   0.963   7.491   5.507  0.6830  0.4687  0.1177
17619THY    HA630953   1.006   7.590   5.517 -1.4862  0.0658  1.1563
17620THY      O30954   8.565   1.382   4.901  0.2175 -0.3080  0.3508
17620THY     HO30955   8.655   1.347   4.907 -0.7974  1.3583 -2.3134
17620THY    CA130956   8.553   1.435   4.776  0.0864  0.0602 -0.6509
17620THY    CA230957   8.430   1.432   4.711 -0.3485 -0.0498 -0.2724
17620THY    CP130958   8.304   1.363   4.768 -1.1198  0.4549  0.0425
17620THY    HP130959   8.343   1.289   4.838  1.2660  1.7229  2.3623
17620THY    CP230960   8.216   1.300   4.661 -0.0226 -0.0544  0.3842
17620THY    HP230961   8.254   1.221   4.596 -0.2512  1.7102 -1.2515
17620THY    HP330962   8.175   1.376   4.592 -2.8252  0.8377 -0.2174
17620THY    HP430963   8.125   1.264   4.710 -0.2830 -0.5128  0.4076
17620THY    CP330964   8.219   1.458   4.847  0.7296 -0.1684 -0.3779
17620THY    HP530965   8.183   1.538   4.781 -1.1041  1.5053  0.2509
17620THY    HP630966   8.283   1.504   4.924 -0.9786  2.9802 -2.8834
17620THY    HP730967   8.143   1.409   4.907  0.2089  0.0914  0.7096
17620THY    CA330968   8.424   1.502   4.590 -0.4455  0.5059 -0.5535
17620THY    HA330969   8.331   1.516   4.536 -1.2081  1.7829 -0.5202
17620THY    CA430970   8.537   1.562   4.538 -0.2904  0.1368 -0.5001
17620THY    HA430971   8.538   1.628   4.452  0.4177  0.7475  0.3078
17620THY    CA530972   8.664   1.553   4.605  0.6214  0.1583  0.0146
17620THY    CM130973   8.791   1.598   4.538  0.0232  0.3569 -0.4135
17620THY    HM130974   8.784   1.705   4.514  0.2555 -0.1121 -0.5024
17620THY    HM230975   8.807   1.542   4.445  2.3866 -0.7206  1.8242
17620THY    HM330976   8.879   1.592   4.603 -0.2600  1.0670  2.0025
17620THY    CA630977   8.671   1.485   4.725  0.0241  0.7360 -0.3783
17620THY    HA630978   8.764   1.466   4.778  0.4443 -0.7331 -2.7838
17621THY      O30979   2.299   2.569   3.887  0.2280  0.4022 -0.2761
17621THY     HO30980   2.308   2.660   3.922 -0.2767  1.1847 -0.5187
17621THY    CA130981   2.169   2.534   3.876 -0.8771 -0.2701 -0.1827
17621THY    CA230982   2.140   2.405   3.835 -0.7888 -0.2180  0.0171
17621THY    CP130983   2.263   2.317   3.778 -0.0092 -0.0728  0.5608
17621THY    HP130984   2.349   2.344   3.841 -0.5974  1.3693 -0.7643
17621THY    CP230985   2.300   2.338   3.626  0.5385 -0.2406  0.3822
17621THY    HP230986   2.340   2.435   3.597  2.3909  1.3903  0.1662
17621THY    HP330987   2.211   2.317   3.566  0.7816  0.1664 -2.2121
17621THY    HP430988   2.373   2.259   3.606  1.0409  1.7256  0.2930
17621THY    CP330989   2.228   2.163   3.795 -0.1725 -0.6720  0.0515
17621THY    HP530990   2.197   2.149   3.899 -1.2885 -1.1433 -1.1196
17621THY    HP630991   2.314   2.097   3.776 -0.5157 -0.9753 -0.3166
17621THY    HP730992   2.155   2.125   3.724 -0.7282  0.1758 -0.5145
17621THY    CA330993   2.007   2.361   3.840  0.0243 -0.6544 -0.3118
17621THY    HA330994   1.974   2.264   3.803 -0.6616 -2.4920  0.5715
17621THY    CA430995   1.906   2.455   3.888 -0.3656 -0.5061  0.8404
17621THY    HA430996   1.806   2.416   3.872 -0.7163 -0.1536  1.5796
17621THY    CA530997   1.939   2.581   3.923  0.4284 -0.0102 -0.6910
17621THY    CM130998   1.838   2.687   3.945  0.1443  0.2554  0.6244
17621THY    HM130999   1.788   2.686   4.043 -1.0975 -0.3092 -2.4470
17621THY    HM231000   1.765   2.677   3.863 -0.9797  1.4605 -1.9831
17621THY    HM331001   1.874   2.790   3.938 -0.1777 -0.0726  0.7198
17621THY    CA631002   2.072   2.620   3.917 -0.4705 -0.4894  0.4491
17621THY    HA631003   2.103   2.722   3.939  0.8957  0.5874 -0.1712
17622THY      O31004   5.731   4.768   1.963 -0.6796  0.2666  0.2307
17622THY     HO31005   5.682   4.840   1.920  0.1599  1.9367  1.8847
17622THY    CA131006   5.732   4.780   2.101 -0.0419 -0.3820 -0.9441
17622THY    CA231007   5.791   4.688   2.186 -0.0732  0.0351 -0.0871
17622THY    CP131008   5.869   4.568   2.132 -0.2756  0.6730  0.1343
17622THY    HP131009   5.878   4.574   2.023 -0.7310  0.5914 -0.5080
17622THY    CP231010   5.786   4.443   2.142 -1.0387 -0.7382  0.0316
17622THY    HP231011   5.691   4.453   2.089  0.4455 -3.7031 -0.5466
17622THY    HP331012   5.770   4.435   2.250 -1.6796 -0.8847 -0.7383
17622THY    HP431013   5.838   4.349   2.122 -0.7202  1.3409 -0.2877
17622THY    CP331014   6.006   4.551   2.187 -0.5358 -0.2702 -0.5594
17622THY    HP531015   6.069   4.625   2.136 -0.0366  0.5075 -0.4301
17622THY    HP631016   6.048   4.453   2.163  0.9096  2.4695 -0.7054
17622THY    HP731017   6.007   4.571   2.295  2.8807 -0.2006 -0.5673
17622THY    CA331018   5.787   4.712   2.323  0.0936  0.2413 -1.0885
17622THY    HA331019   5.832   4.641   2.391  0.1006  1.4159  0.0056
17622THY    CA431020   5.730   4.837   2.372 -0.1312  0.3572  0.2979
17622THY    HA431021   5.725   4.860   2.478  2.3652  0.8319 -1.0142
17622THY    CA531022   5.675   4.925   2.285  0.9063  0.9204  0.4014
17622THY    CM131023   5.613   5.053   2.338  0.2144 -0.5281 -0.6363
17622THY    HM131024   5.512   5.067   2.298  0.7406 -2.2910 -1.5516
17622THY    HM231025   5.675   5.139   2.310 -0.5468 -0.1767  0.0439
17622THY    HM331026   5.603   5.054   2.447 -1.9351 -0.6840  0.6634
17622THY    CA631027   5.668   4.897   2.152  0.0209  0.0613 -0.1259
17622THY    HA631028   5.618   4.969   2.088  1.1736 -2.2838 -1.2977
17623THY      O31029   0.609   1.437   2.588 -0.1719 -0.0268  0.2121
17623THY     HO31030   0.539   1.371   2.602  1.5938  0.6043 -1.6174
17623THY    CA131031   0.595   1.505   2.705  0.6657  0.1685  0.0016
17623THY    CA231032   0.660   1.627   2.720  0.0405  0.4056  0.7018
17623THY    CP131033   0.747   1.679   2.605  0.3353  0.2326  0.3328
17623THY    HP131034   0.752   1.605   2.524 -0.9343  1.0347 -0.6738
17623THY    CP231035   0.896   1.707   2.645  0.0801 -0.2418  0.2115
17623THY    HP231036   0.907   1.752   2.744  2.9445 -1.4071  2.4468
17623THY    HP331037   0.941   1.778   2.574 -0.2829 -1.0805 -0.3813
17623THY    HP431038   0.955   1.614   2.647 -1.5380 -1.0880 -0.8755
17623THY    CP331039   0.699   1.814   2.551 -0.0341 -0.4414  0.2847
17623THY    HP531040   0.713   1.877   2.639 -2.7294 -0.3781  0.8831
17623THY    HP631041   0.592   1.812   2.529  0.1064 -1.0890 -0.9917
17623THY    HP731042   0.767   1.845   2.471  1.5993  0.5881 -0.4712
17623THY    CA331043   0.637   1.698   2.839  0.1472 -0.3710  0.6823
17623THY    HA331044   0.676   1.799   2.852  4.7800 -1.6021 -0.6927
17623THY    CA431045   0.550   1.644   2.928 -0.3587  0.4111 -0.4003
17623THY    HA431046   0.541   1.707   3.017 -0.2812 -1.3082  2.1844
17623THY    CA531047   0.481   1.528   2.907  0.1976 -0.1600 -0.5114
17623THY    CM131048   0.383   1.470   3.003 -0.6865 -0.0517  0.2852
17623THY    HM131049   0.339   1.554   3.058 -1.4463  0.3529 -0.3562
17623THY    HM231050   0.418   1.396   3.075  1.4250 -1.7804 -0.5073
17623THY    HM331051   0.300   1.415   2.957 -1.4613  3.4307 -1.7643
17623THY    CA631052   0.508   1.452   2.797  0.5050 -0.0424 -0.1048
17623THY    HA631053   0.454   1.358   2.784 -3.0871 -0.7991  1.8835
17624THY      O31054   7.861   1.469   6.738 -0.9887 -0.0656 -0.1007
17624THY     HO31055   7.849   1.539   6.805  1.6188 -1.3333  1.7137
17624THY    CA131056   7.766   1.498   6.650 -0.2998  0.2897 -1.1058
17624THY    CA231057   7.729   1.410   6.543  0.4905 -0.7596  0.1805
17624THY    CP131058   7.783   1.262   6.524 -0.3005 -0.2215  0.5825
17624THY    HP131059   7.814   1.215   6.619  2.5503 -2.4276 -2.4594
17624THY    CP231060   7.904   1.272   6.428  0.6101  0.4136  0.4978
17624THY    HP231061   7.940   1.173   6.401  1.3595 -0.0900  0.8938
17624THY    HP331062   7.990   1.329   6.466  0.2981  0.5694  0.8777
17624THY    HP431063   7.878   1.319   6.332  2.8488 -0.7111 -0.4258
17624THY    CP331064   7.685   1.161   6.463 -0.0200 -0.3917 -0.1605
17624THY    HP531065   7.743   1.068   6.467  3.9335 -1.0314  2.0540
17624THY    HP631066   7.683   1.179   6.355  2.1676 -0.0735  2.6623
17624THY    HP731067   7.587   1.158   6.512  0.3676  0.8247  3.2391
17624THY    CA331068   7.632   1.455   6.452 -0.1978  0.4816  0.0345
17624THY    HA331069   7.595   1.400   6.366 -0.3972  0.3455  0.3824
17624THY    CA431070   7.582   1.589   6.464 -0.6901 -0.3603 -0.5067
17624THY    HA431071   7.514   1.635   6.393  0.4233 -1.3205 -0.3035
17624THY    CA531072   7.626   1.672   6.566 -0.6325  0.4944 -0.7990
17624THY    CM131073   7.571   1.806   6.587 -0.3727  0.3003  0.2822
17624THY    HM131074   7.462   1.811   6.585 -0.4224  1.6583  0.2895
17624THY    HM231075   7.600   1.872   6.504  0.8945  0.4721 -0.0281
17624THY    HM331076   7.592   1.854   6.684 -2.2005  0.9220 -0.0867
17624THY    CA631077   7.724   1.631   6.649 -0.6814  0.8262 -0.4978
17624THY    HA631078   7.758   1.713   6.712 -3.0457 -1.7506  2.7185
17625THY      O31079   0.242   4.904   3.406  0.4516  0.3204 -0.3066
17625THY     HO31080   0.241   4.847   3.327 -2.1553  0.8957 -1.2230
17625THY    CA131081   0.356   4.881   3.469 -0.3577 -0.0745 -0.0065
17625THY    CA231082   0.397   4.968   3.575 -0.4683  0.5504  0.9476
17625THY    CP131083   0.296   5.062   3.630 -0.1126 -1.0726 -0.4573
17625THY    HP131084   0.253   5.122   3.549 -1.4519  0.5029  0.8130
17625THY    CP231085   0.344   5.155   3.738 -0.7333 -0.3240 -0.6440
17625THY    HP231086   0.427   5.214   3.695  0.3450  0.5114 -1.5055
17625THY    HP331087   0.388   5.089   3.813  0.2802  0.5959  0.9957
17625THY    HP431088   0.268   5.228   3.769  0.1044  0.5148 -0.0935
17625THY    CP331089   0.180   4.979   3.711  0.0831 -0.1395  0.4256
17625THY    HP531090   0.116   4.929   3.638  0.0173 -1.7250  2.6864
17625THY    HP631091   0.113   5.056   3.750 -0.4141 -0.6172  0.2399
17625THY    HP731092   0.222   4.913   3.788 -1.2774  0.5348  0.3209
17625THY    CA331093   0.533   4.960   3.617  0.0379 -0.1960 -0.1878
17625THY    HA331094   0.566   5.032   3.691 -0.4596 -0.0097 -0.1476
17625THY    CA431095   0.621   4.858   3.574 -0.4228  0.6318  0.1352
17625THY    HA431096   0.723   4.870   3.608 -0.4479  0.7931 -0.1245
17625THY    CA531097   0.568   4.764   3.482 -0.6697  0.3841  0.0390
17625THY    CM131098   0.658   4.657   3.422 -0.0777  0.6957 -0.2237
17625THY    HM131099   0.744   4.647   3.489  1.0749 -0.6021  0.6589
17625THY    HM231100   0.704   4.683   3.326  1.3879  1.2146 -0.7916
17625THY    HM331101   0.594   4.573   3.394  0.5180  0.8614 -0.7431
17625THY    CA631102   0.438   4.775   3.437 -0.2647 -0.0661 -0.3683
17625THY    HA631103   0.400   4.691   3.379 -3.9229 -0.3860  1.3326
17626THY      O31104   6.706   0.368   4.201 -0.0769 -0.0277  0.3220
17626THY     HO31105   6.726   0.403   4.289 -3.0669  0.6681  0.5378
17626THY    CA131106   6.598   0.440   4.156  0.2198 -0.5021  1.0373
17626THY    CA231107   6.558   0.433   4.022  0.2136 -0.2296  0.7607
17626THY    CP131108   6.637   0.337   3.925  0.2531  0.1731 -0.1178
17626THY    HP131109   6.682   0.250   3.975  0.9389 -0.5725 -0.2133
17626THY    CP231110   6.757   0.413   3.864 -0.9595 -0.8413  0.0371
17626THY    HP231111   6.824   0.355   3.799  1.2620 -1.9782  3.5422
17626THY    HP331112   6.824   0.454   3.941  0.9625 -1.0470 -2.4078
17626THY    HP431113   6.719   0.488   3.794 -0.3441  0.8291  1.9854
17626THY    CP331114   6.545   0.278   3.810  0.5606 -0.5341 -0.2721
17626THY    HP531115   6.511   0.355   3.740  1.5815  1.2939  1.9783
17626THY    HP631116   6.453   0.238   3.855  1.0706  4.9433  3.5327
17626THY    HP731117   6.592   0.191   3.762  2.9655 -0.7320  1.0312
17626THY    CA331118   6.454   0.510   3.973  1.1165  0.0866 -0.1671
17626THY    HA331119   6.425   0.506   3.868  1.0404  0.1480 -2.5092
17626THY    CA431120   6.386   0.594   4.062  0.4770  0.8443  0.3319
17626THY    HA431121   6.301   0.644   4.016  1.1800 -3.1519 -1.7924
17626THY    CA531122   6.424   0.601   4.194 -0.0330  0.8883 -0.8344
17626THY    CM131123   6.356   0.689   4.292 -0.3886  0.0958  0.2240
17626THY    HM131124   6.399   0.790   4.295  1.1480  2.0060 -0.4133
17626THY    HM231125   6.384   0.644   4.388  2.9869 -0.7826  0.1977
17626THY    HM331126   6.247   0.703   4.289 -0.1678 -2.2243  2.2539
17626THY    CA631127   6.528   0.525   4.245  0.1829  1.1813  0.7045
17626THY    HA631128   6.544   0.522   4.353 -0.3727  1.2554 -0.3625
17627THY      O31129   5.530   0.349   5.323  0.3830 -0.0868 -0.1449
17627THY     HO31130   5.436   0.361   5.303 -0.5459  3.1727 -0.9979
17627THY    CA131131   5.531   0.369   5.456  0.0585  0.6027 -0.1080
17627THY    CA231132   5.638   0.318   5.537  0.1962  0.3916  0.1348
17627THY    CP131133   5.772   0.281   5.472 -0.0341 -1.0651 -0.0850
17627THY    HP131134   5.775   0.341   5.380 -3.0514 -0.7228  0.7792
17627THY    CP231135   5.775   0.127   5.444 -0.2089  0.8767 -0.8029
17627THY    HP231136   5.796   0.062   5.530  1.9210  0.4483 -0.7621
17627THY    HP331137   5.839   0.115   5.355 -1.7019 -0.7805  2.4527
17627THY    HP431138   5.679   0.111   5.395  0.4971 -0.8968  0.1230
17627THY    CP331139   5.888   0.318   5.566 -0.4268 -0.0559 -0.1089
17627THY    HP531140   5.985   0.293   5.521 -0.8682 -0.8602 -0.4312
17627THY    HP631141   5.882   0.275   5.666  3.3168  0.3724  0.0722
17627THY    HP731142   5.886   0.426   5.585  1.6615 -0.6311  0.0661
17627THY    CA331143   5.611   0.311   5.675  0.3232  0.0804 -0.1620
17627THY    HA331144   5.692   0.275   5.738  0.6473 -0.2067  0.0611
17627THY    CA431145   5.493   0.364   5.731 -0.1538 -0.6826  0.1156
17627THY    HA431146   5.478   0.358   5.838 -0.0851 -0.6218  0.9788
17627THY    CA531147   5.400   0.432   5.648  0.0860 -0.6347 -0.3690
17627THY    CM131148   5.269   0.489   5.710 -0.0869 -0.2960  0.5751
17627THY    HM131149   5.265   0.488   5.820 -0.9815 -0.1786  3.8260
17627THY    HM231150   5.185   0.421   5.691 -1.5532  2.9506  1.2728
17627THY    HM331151   5.247   0.589   5.670  1.8143  0.6032  1.4009
17627THY    CA631152   5.414   0.424   5.512 -0.9230  0.3334 -0.1697
17627THY    HA631153   5.332   0.464   5.452 -0.8493  0.3498  0.0063
17628THY      O31154   6.696   5.756   4.925  0.0439  0.6261 -0.2486
17628THY     HO31155   6.627   5.754   4.993 -1.4948 -0.7679  1.7011
17628THY    CA131156   6.761   5.874   4.946  0.3708 -0.1597  0.2190
17628THY    CA231157   6.877   5.900   4.874 -0.3372 -0.3431  0.2444
17628THY    CP131158   6.920   5.804   4.762  0.9709  0.2120 -0.0860
17628THY    HP131159   6.878   5.703   4.777 -1.1651  0.1983  0.7381
17628THY    CP231160   7.072   5.801   4.743  0.3087  0.3324 -0.2077
17628THY    HP231161   7.108   5.719   4.679 -2.2805 -1.1190 -0.3464
17628THY    HP331162   7.130   5.799   4.836 -0.2889  0.8005  1.9327
17628THY    HP431163   7.101   5.893   4.691 -3.7449 -1.2818  0.3688
17628THY    CP331164   6.850   5.859   4.629 -0.5335  0.4410 -0.6791
17628THY    HP531165   6.741   5.872   4.640 -0.8214 -2.6841  0.1414
17628THY    HP631166   6.860   5.791   4.544  0.6922  2.4436 -3.1656
17628THY    HP731167   6.902   5.949   4.596  1.4186 -3.2176 -2.9457
17628THY    CA331168   6.940   6.025   4.889  0.2272  0.1874  0.6915
17628THY    HA331169   7.038   6.038   4.844  0.5362  0.3390 -0.8836
17628THY    CA431170   6.892   6.119   4.978 -0.3917 -0.4466  0.7561
17628THY    HA431171   6.950   6.209   4.996  1.6392  1.0394 -0.7568
17628THY    CA531172   6.775   6.090   5.045 -0.4040 -0.6462 -0.2339
17628THY    CM131173   6.705   6.196   5.127 -0.3701  0.2163 -0.3431
17628THY    HM131174   6.692   6.163   5.231 -1.3882 -0.0619 -0.8604
17628THY    HM231175   6.604   6.222   5.092 -0.1500  0.1885  0.4944
17628THY    HM331176   6.758   6.292   5.131 -0.9502  0.4863 -0.0290
17628THY    CA631177   6.711   5.970   5.032 -0.6664  0.8812 -1.0895
17628THY    HA631178   6.625   5.950   5.096 -1.8109 -0.8134 -1.7967
17629THY      O31179   7.010   1.052   6.508  0.3982 -0.5607  0.8055
17629THY     HO31180   6.942   1.105   6.463 -1.2819 -0.5103 -1.1763
17629THY    CA131181   7.075   1.003   6.406 -0.0077  0.7131  0.6820
17629THY    CA231182   7.182   0.908   6.407  0.2523  0.8929  0.0656
17629THY    CP131183   7.229   0.861   6.541 -0.3191  1.0080  0.4360
17629THY    HP131184   7.138   0.877   6.600 -1.8264 -0.5530 -1.8518
17629THY    CP231185   7.338   0.940   6.605  0.0567 -0.1486  0.4657
17629THY    HP231186   7.320   1.046   6.588  0.5586 -1.3023  0.3721
17629THY    HP331187   7.432   0.916   6.555  0.3525 -0.4881  2.2183
17629THY    HP431188   7.353   0.925   6.713  1.1398  0.0746  2.8184
17629THY    CP331189   7.258   0.710   6.539  0.3621 -0.2907 -0.9203
17629THY    HP531190   7.346   0.710   6.473 -0.4748 -1.4964  1.2602
17629THY    HP631191   7.178   0.648   6.498 -0.3092  2.1761 -1.7835
17629THY    HP731192   7.284   0.675   6.640  1.0073 -0.3460 -0.6267
17629THY    CA331193   7.238   0.868   6.283  0.6444  0.1298 -0.0800
17629THY    HA331194   7.320   0.798   6.281  1.9384  0.9554  1.3295
17629THY    CA431195   7.203   0.928   6.161  0.2319  0.3881  0.2849
17629THY    HA431196   7.248   0.901   6.066  0.5875  0.7740 -0.5053
17629THY    CA531197   7.105   1.029   6.163  0.0663  0.0398  0.6526
17629THY    CM131198   7.067   1.114   6.045  0.4567  0.7433 -0.0959
17629THY    HM131199   7.071   1.218   6.079 -0.3566 -2.3195  1.0537
17629THY    HM231200   6.969   1.075   6.016  1.7190 -3.4362 -0.7293
17629THY    HM331201   7.138   1.108   5.962 -0.3802  0.0037 -0.0387
17629THY    CA631202   7.042   1.063   6.283  0.3579 -0.0520  0.1903
17629THY    HA631203   6.968   1.142   6.290  1.3896  0.6771  1.1227
17630THY      O31204   9.006   3.986   2.368 -0.3157  0.3652 -0.5070
17630THY     HO31205   9.048   4.039   2.297 -1.3406  1.0469  1.3055
17630THY    CA131206   9.082   4.008   2.471  0.6235  1.0684  0.0807
17630THY    CA231207   9.031   4.069   2.589  0.2416 -0.0569  0.0810
17630THY    CP131208   8.883   4.102   2.613 -0.0926  0.2344  0.4268
17630THY    HP131209   8.823   4.071   2.528 -3.4100  1.7592  2.1892
17630THY    CP231210   8.876   4.256   2.636 -0.0620  0.3709  0.0840
17630THY    HP231211   8.897   4.319   2.548  0.0005  0.9307  0.8505
17630THY    HP331212   8.944   4.282   2.717 -1.2645  2.0419 -1.7633
17630THY    HP431213   8.773   4.278   2.666  0.3263  1.0353  1.0552
17630THY    CP331214   8.819   4.018   2.725  0.2236 -0.7273 -0.8597
17630THY    HP531215   8.844   4.052   2.826 -2.1340 -0.3923  0.0219
17630THY    HP631216   8.828   3.909   2.720 -0.3150  1.8521 -1.0938
17630THY    HP731217   8.713   4.042   2.724  0.1391  2.3265 -0.7791
17630THY    CA331218   9.122   4.071   2.697 -0.3985 -0.6540  0.2002
17630THY    HA331219   9.094   4.100   2.798 -0.6220 -0.6563 -0.0046
17630THY    CA431220   9.256   4.032   2.683  1.0249  0.0486 -0.5766
17630THY    HA431221   9.322   4.053   2.767 -0.6592  0.9521  1.5033
17630THY    CA531222   9.303   3.987   2.562  0.3057  0.4011  0.5130
17630THY    CM131223   9.452   3.962   2.549  0.1386  0.0197  0.1138
17630THY    HM131224   9.498   4.057   2.520 -1.8234 -0.2129  1.0523
17630THY    HM231225   9.478   3.888   2.473  0.3083  1.1103 -0.9694
17630THY    HM331226   9.496   3.942   2.647 -0.4363  0.2344 -0.1200
17630THY    CA631227   9.213   3.964   2.463 -0.3581  0.7902  0.1484
17630THY    HA631228   9.255   3.925   2.371 -0.0705  0.9494  0.0796
17631THY      O31229   2.775   8.522   3.867 -0.0899  0.1917 -0.0831
17631THY     HO31230   2.812   8.612   3.859  2.1533 -1.0942 -1.0309
17631THY    CA131231   2.651   8.539   3.822 -0.4771 -0.0886  0.1627
17631THY    CA231232   2.583   8.431   3.764  0.2052  0.2589 -0.3806
17631THY    CP131233   2.649   8.297   3.762 -0.3501  0.8322  0.3584
17631THY    HP131234   2.714   8.290   3.850 -0.6184  1.0244  0.2653
17631THY    CP231235   2.732   8.283   3.634  0.1405 -0.3011  0.5513
17631THY    HP231236   2.688   8.338   3.550 -1.8622  0.9715  1.0111
17631THY    HP331237   2.742   8.180   3.599 -0.2790 -0.4155  0.5491
17631THY    HP431238   2.837   8.315   3.643  1.0053  0.5226 -2.2341
17631THY    CP331239   2.554   8.179   3.766 -0.5168 -0.5924 -0.9440
17631THY    HP531240   2.493   8.169   3.675 -1.5953 -0.1105  0.7634
17631THY    HP631241   2.483   8.196   3.848 -1.8766 -2.1681  1.7946
17631THY    HP731242   2.614   8.088   3.775 -0.1861 -1.5307 -0.8370
17631THY    CA331243   2.449   8.456   3.718 -0.5195 -0.1393 -0.6672
17631THY    HA331244   2.399   8.374   3.668  1.5089  0.0323 -2.0773
17631THY    CA431245   2.397   8.583   3.713 -0.1331 -0.6474 -0.0105
17631THY    HA431246   2.300   8.599   3.667 -1.0242  1.5857  1.5212
17631THY    CA531247   2.469   8.694   3.771  0.4132  0.2247 -0.4962
17631THY    CM131248   2.407   8.839   3.764 -0.1528 -0.0034  0.0836
17631THY    HM131249   2.371   8.862   3.865 -1.9006 -0.8752  1.4072
17631THY    HM231250   2.333   8.847   3.683 -1.5217  1.1207 -0.6392
17631THY    HM331251   2.483   8.907   3.726 -2.1940 -2.2365  1.2694
17631THY    CA631252   2.597   8.670   3.825 -0.0325  0.4328  0.6754
17631THY    HA631253   2.650   8.753   3.871 -0.9167  1.3611  0.7431
17632THY      O31254   2.420   7.326   4.375 -0.0776 -0.2566  0.3245
17632THY     HO31255   2.497   7.345   4.430 -0.8134  1.0870 -0.3908
17632THY    CA131256   2.335   7.436   4.393 -0.3516  0.0327 -0.1616
17632THY    CA231257   2.241   7.476   4.296  0.4079 -0.5241 -0.0270
17632THY    CP131258   2.238   7.408   4.162 -0.8762 -0.2525 -0.2729
17632THY    HP131259   2.336   7.358   4.150  0.8052  2.5018  2.0544
17632THY    CP231260   2.256   7.519   4.050 -0.4362  0.1414  0.1029
17632THY    HP231261   2.284   7.466   3.958 -0.5049  0.1427  0.0641
17632THY    HP331262   2.338   7.589   4.070 -0.8538 -0.3394  0.7374
17632THY    HP431263   2.170   7.580   4.023 -0.2600 -0.3315  0.1478
17632THY    CP331264   2.117   7.312   4.135 -0.0182 -0.5610 -0.2647
17632THY    HP531265   2.024   7.369   4.144  0.7768  0.3051  0.9307
17632THY    HP631266   2.104   7.230   4.207  0.3538  0.5392  0.6194
17632THY    HP731267   2.143   7.276   4.035  0.5136 -0.2960 -0.6323
17632THY    CA331268   2.155   7.578   4.321 -0.4665 -0.1234 -0.0884
17632THY    HA331269   2.077   7.602   4.250 -1.3211  1.1161  0.9350
17632THY    CA431270   2.146   7.630   4.452 -0.2019  0.7243 -0.2888
17632THY    HA431271   2.064   7.690   4.490  0.2679  3.4081 -1.2129
17632THY    CA531272   2.235   7.587   4.551 -0.9379  0.4699 -0.1470
17632THY    CM131273   2.224   7.629   4.698  0.3514 -0.1951 -0.0870
17632THY    HM131274   2.122   7.663   4.720 -0.4994 -3.5248 -0.2096
17632THY    HM231275   2.292   7.710   4.728  0.3500 -0.9941  0.2153
17632THY    HM331276   2.253   7.543   4.761 -0.2433 -1.4391 -1.2363
17632THY    CA631277   2.334   7.486   4.526  0.4111  0.4168 -0.0535
17632THY    HA631278   2.399   7.454   4.607  0.7788  0.1328 -0.0330
17633THY      O31279   1.270   7.259   3.582  0.1021 -0.4657  0.1380
17633THY     HO31280   1.304   7.242   3.492 -2.0392 -1.2797 -0.1569
17633THY    CA131281   1.140   7.218   3.589 -0.0653 -0.2233  0.2297
17633THY    CA231282   1.036   7.300   3.648  0.4277 -0.4987 -0.2412
17633THY    CP131283   1.070   7.436   3.710 -0.1094  0.2976 -0.0261
17633THY    HP131284   1.178   7.434   3.729 -0.0760  0.3710 -3.5560
17633THY    CP231285   1.001   7.473   3.838 -0.0533  0.3366 -0.4095
17633THY    HP231286   0.892   7.463   3.825  0.4788 -5.0965 -2.9012
17633THY    HP331287   1.028   7.576   3.859  0.9495 -3.3235  0.2104
17633THY    HP431288   1.035   7.405   3.917 -0.6462 -1.1668 -2.5767
17633THY    CP331289   1.044   7.538   3.601  0.1821 -0.5409 -0.0809
17633THY    HP531290   0.944   7.534   3.557  1.0821 -3.2744  2.7262
17633THY    HP631291   1.122   7.521   3.525  2.6133  1.8472 -0.3816
17633THY    HP731292   1.060   7.640   3.639  0.3405 -0.3333 -0.1833
17633THY    CA331293   0.899   7.260   3.638  0.1894  0.9636 -0.1282
17633THY    HA331294   0.822   7.327   3.674 -0.9994 -0.3455 -0.7422
17633THY    CA431295   0.866   7.133   3.584  0.6037  0.8488 -0.2792
17633THY    HA431296   0.765   7.099   3.560 -0.5420  0.0767  3.2757
17633THY    CA531297   0.967   7.049   3.536 -0.6186  0.2424 -0.6797
17633THY    CM131298   0.934   6.930   3.460  0.4483  0.5754 -0.3166
17633THY    HM131299   0.978   6.935   3.360  1.2527  0.9193 -0.4745
17633THY    HM231300   0.828   6.900   3.463 -0.6759 -0.6962  3.0398
17633THY    HM331301   0.981   6.848   3.516  1.0366 -0.4579 -0.6984
17633THY    CA631302   1.104   7.096   3.529 -0.0959 -0.1532 -0.2989
17633THY    HA631303   1.184   7.041   3.480  1.5305  0.2481  1.6319
17634THY      O31304   1.410   0.649   2.729 -0.4983  0.1535 -0.2408
17634THY     HO31305   1.464   0.611   2.657  2.1741  0.2497  2.9276
17634THY    CA131306   1.492   0.727   2.800 -0.3033  0.2334  0.4963
17634THY    CA231307   1.442   0.809   2.903  0.8962 -0.5214 -0.9747
17634THY    CP131308   1.295   0.787   2.966 -0.5316  0.3108  0.0871
17634THY    HP131309   1.241   0.719   2.899 -1.2061  1.2850 -0.3540
17634THY    CP231310   1.214   0.914   2.975 -0.4846  0.0214  0.1275
17634THY    HP231311   1.233   0.975   2.887  1.2485  1.5743  1.9863
17634THY    HP331312   1.227   0.986   3.057  0.3082 -0.5056  0.6022
17634THY    HP431313   1.110   0.881   2.967 -0.8778 -0.2409  1.4157
17634THY    CP331314   1.308   0.726   3.105 -0.5351 -0.4438 -0.1949
17634THY    HP531315   1.350   0.627   3.087  1.2863  1.0551  0.2375
17634THY    HP631316   1.214   0.722   3.161  1.0885  2.6416  0.6449
17634THY    HP731317   1.376   0.787   3.166 -1.0135 -0.0789 -0.0154
17634THY    CA331318   1.523   0.910   2.954 -0.1284  0.0011 -0.1451
17634THY    HA331319   1.485   0.986   3.022 -0.6410 -1.1243  0.6161
17634THY    CA431320   1.658   0.911   2.916 -0.0871  0.4074  0.2590
17634THY    HA431321   1.727   0.986   2.956  1.3864  1.1863 -1.4467
17634THY    CA531322   1.710   0.831   2.817  0.0645  0.3984  0.0614
17634THY    CM131323   1.856   0.835   2.776 -0.4964 -0.2736  0.3185
17634THY    HM131324   1.907   0.932   2.777  0.2935  2.8688 -0.0258
17634THY    HM231325   1.864   0.797   2.674 -1.7796 -0.6219  0.9304
17634THY    HM331326   1.918   0.761   2.828  0.1095 -1.1032  0.2277
17634THY    CA631327   1.626   0.744   2.752  0.5063 -0.2526 -0.4371
17634THY    HA631328   1.666   0.696   2.663 -1.3529 -1.6413  0.4120
17635THY      O31329   4.677   8.387   7.517  0.3436  0.3061 -0.2383
17635THY     HO31330   4.748   8.433   7.564  1.4707 -2.0742  0.6458
17635THY    CA131331   4.690   8.448   7.389 -0.4690 -0.4319 -0.0030
17635THY    CA231332   4.576   8.472   7.311  0.1426 -0.9759 -0.0335
17635THY    CP131333   4.438   8.445   7.363 -0.1373  0.2305 -0.0737
17635THY    HP131334   4.426   8.360   7.431 -0.9219 -0.6975 -0.7276
17635THY    CP231335   4.325   8.429   7.259  0.3267 -0.5873  0.3308
17635THY    HP231336   4.234   8.432   7.320  0.5216 -0.3268  2.3972
17635THY    HP331337   4.335   8.338   7.198  0.7139 -1.3923  0.9072
17635THY    HP431338   4.318   8.520   7.199 -1.9711  2.0089  2.0382
17635THY    CP331339   4.407   8.559   7.458 -0.2819  0.1472  0.2451
17635THY    HP531340   4.485   8.565   7.535 -0.5403  0.5088 -0.7628
17635THY    HP631341   4.314   8.522   7.503 -0.2932  0.8206  1.0799
17635THY    HP731342   4.388   8.655   7.409  0.5555  0.3803  0.5398
17635THY    CA331343   4.592   8.519   7.178  0.5581  0.2215 -0.2252
17635THY    HA331344   4.512   8.532   7.106  0.3565  0.2034 -1.4611
17635THY    CA431345   4.725   8.560   7.134 -0.1123  1.0292  0.1397
17635THY    HA431346   4.728   8.613   7.039 -0.4318  1.9038  1.7835
17635THY    CA531347   4.838   8.537   7.211 -0.5294  0.0274 -0.1506
17635THY    CM131348   4.976   8.567   7.153  0.2418  0.2897 -0.5411
17635THY    HM131349   4.975   8.664   7.102  4.0616 -0.9433 -0.9579
17635THY    HM231350   5.001   8.501   7.069  2.0141 -0.0199  0.4620
17635THY    HM331351   5.055   8.566   7.229  1.1279 -0.6032 -0.2052
17635THY    CA631352   4.820   8.489   7.347 -0.0742  0.1852  0.9191
17635THY    HA631353   4.908   8.489   7.410  0.1892 -0.1783  1.4457
17636THY      O31354   7.984   0.674   6.017 -0.5609  0.5005  0.5253
17636THY     HO31355   8.030   0.742   6.070  0.5949 -0.5819  0.6137
17636THY    CA131356   7.852   0.676   6.029 -0.2458 -0.3055  0.1962
17636THY    CA231357   7.782   0.555   6.002 -0.4264  0.1050  0.0822
17636THY    CP131358   7.848   0.427   5.973 -0.6361 -0.1852 -0.6978
17636THY    HP131359   7.955   0.437   5.993 -0.6611 -0.4736  0.1800
17636THY    CP231360   7.816   0.385   5.826 -0.4756 -0.4441  0.2195
17636THY    HP231361   7.713   0.353   5.808 -0.5895  1.1713 -0.4661
17636THY    HP331362   7.873   0.294   5.803 -0.4728 -0.9385  0.3471
17636THY    HP431363   7.847   0.462   5.755 -0.6646 -1.6047 -0.7376
17636THY    CP331364   7.816   0.323   6.086  0.1655 -0.0299 -0.3576
17636THY    HP531365   7.900   0.256   6.107 -0.5959  2.4795 -0.6453
17636THY    HP631366   7.725   0.272   6.053 -0.1725 -0.8154  0.6974
17636THY    HP731367   7.795   0.355   6.189 -1.3777 -0.3693 -0.2229
17636THY    CA331368   7.641   0.567   5.995  0.6610 -0.4243 -0.1854
17636THY    HA331369   7.581   0.485   5.956  0.6301  0.8620 -0.7964
17636THY    CA431370   7.579   0.686   6.036 -0.2794  0.0991  0.3616
17636THY    HA431371   7.471   0.686   6.023 -0.1840 -0.7673 -0.4933
17636THY    CA531372   7.651   0.799   6.073 -0.2587  0.3507 -0.1732
17636THY    CM131373   7.585   0.935   6.097 -0.4949 -0.3032  0.4032
17636THY    HM131374   7.599   0.976   6.198  2.7466 -0.3229 -0.4167
17636THY    HM231375   7.479   0.926   6.071 -0.1408 -2.3650  1.6022
17636THY    HM331376   7.642   1.006   6.036  0.9731  0.1933 -0.3340
17636THY    CA631377   7.789   0.791   6.074 -0.3210  0.3431 -0.1787
17636THY    HA631378   7.842   0.880   6.104 -2.0457  2.0723  0.3412
17637THY      O31379   5.492   5.812   6.857 -0.0258  0.2300 -0.1090
17637THY     HO31380   5.419   5.858   6.811  0.2717  0.5399  0.6967
17637THY    CA131381   5.443   5.697   6.901 -0.0285  0.2363 -0.0318
17637THY    CA231382   5.494   5.628   7.011  0.8967  0.1479  0.5223
17637THY    CP131383   5.614   5.684   7.088  0.1149  0.3542  0.2730
17637THY    HP131384   5.685   5.730   7.018  1.4296  1.3835 -0.1352
17637THY    CP231385   5.694   5.583   7.171  0.5741 -0.0909 -0.9777
17637THY    HP231386   5.780   5.633   7.218 -0.3537  0.0544  0.5421
17637THY    HP331387   5.745   5.515   7.102 -0.7334  0.0323 -2.1161
17637THY    HP431388   5.635   5.523   7.241 -0.3489 -1.6367 -1.9271
17637THY    CP331389   5.553   5.786   7.193 -0.4361  0.1529  0.5556
17637THY    HP531390   5.490   5.862   7.145 -1.1537  1.5439  0.8764
17637THY    HP631391   5.632   5.839   7.247 -1.0594  3.1532 -1.3402
17637THY    HP731392   5.491   5.727   7.261  1.3826  1.7524  0.3899
17637THY    CA331393   5.413   5.512   7.056  0.2184 -0.1949 -0.7634
17637THY    HA331394   5.447   5.449   7.138 -0.0402 -1.0579 -2.0776
17637THY    CA431395   5.302   5.473   6.985 -0.1045  0.2259 -0.5980
17637THY    HA431396   5.251   5.383   7.018  1.9001  0.5207 -1.6839
17637THY    CA531397   5.259   5.545   6.865  0.3907 -0.3925 -0.3410
17637THY    CM131398   5.146   5.499   6.780 -0.2272 -0.2859 -0.2927
17637THY    HM131399   5.180   5.413   6.721  2.3803 -1.1972  1.2074
17637THY    HM231400   5.116   5.581   6.713 -2.2691 -2.0333 -2.3313
17637THY    HM331401   5.059   5.473   6.841  1.2897  0.3251 -4.6450
17637THY    CA631402   5.330   5.658   6.824  0.4710  0.0777  0.6155
17637THY    HA631403   5.295   5.701   6.731  1.4488  0.3103  1.9539
17638THY      O31404   3.293   2.874   3.097  0.8778 -0.3703 -0.1435
17638THY     HO31405   3.218   2.904   3.152 -2.5116 -3.6775 -1.6773
17638THY    CA131406   3.270   2.933   2.981 -0.3406  0.7215  0.7051
17638THY    CA231407   3.329   2.889   2.862 -0.3826 -0.4246 -0.0355
17638THY    CP131408   3.398   2.764   2.854 -0.8362 -0.1369 -0.4839
17638THY    HP131409   3.440   2.733   2.950  1.5185 -0.4159  1.5670
17638THY    CP231410   3.511   2.753   2.751  0.1663 -0.0504  0.6588
17638THY    HP231411   3.472   2.742   2.649 -0.5182  0.2971 -0.2280
17638THY    HP331412   3.550   2.651   2.754 -0.9373 -1.0935  0.1717
17638THY    HP431413   3.595   2.822   2.764 -0.2271  2.4081  0.7870
17638THY    CP331414   3.292   2.661   2.829  0.0992 -0.3956  0.2284
17638THY    HP531415   3.248   2.662   2.729  0.5240 -0.5803  0.6360
17638THY    HP631416   3.206   2.679   2.895  0.3783  0.0176  0.0784
17638THY    HP731417   3.324   2.558   2.850  0.5090  0.0381  0.4407
17638THY    CA331418   3.329   2.977   2.748  0.0252  0.2773 -0.3325
17638THY    HA331419   3.358   2.943   2.649 -2.0453  0.3145 -2.4848
17638THY    CA431420   3.265   3.102   2.764  1.0183  0.6524 -0.0813
17638THY    HA431421   3.267   3.162   2.674 -2.9285  0.5078  0.0511
17638THY    CA531422   3.202   3.146   2.879  0.6235 -0.6430 -0.0654
17638THY    CM131423   3.148   3.290   2.886  0.4890  0.0094  0.5087
17638THY    HM131424   3.096   3.318   2.795 -2.4764  1.4566  0.0560
17638THY    HM231425   3.233   3.358   2.900  0.9281 -0.3631  0.0443
17638THY    HM331426   3.075   3.291   2.968 -0.1951 -0.5117 -1.4081
17638THY    CA631427   3.203   3.055   2.986  0.8364 -0.5920  0.5519
17638THY    HA631428   3.140   3.082   3.071  1.4025  0.0326 -0.0456
17639THY      O31429   2.267   7.413   3.435  0.0907  0.0445 -0.3110
17639THY     HO31430   2.317   7.420   3.352 -0.1070  0.0500  2.6961
17639THY    CA131431   2.187   7.308   3.429  0.2955 -0.6249  0.6550
17639THY    CA231432   2.067   7.296   3.494 -0.5736  0.1732 -0.7107
17639THY    CP131433   2.010   7.413   3.582  0.1757 -0.1134  0.7099
17639THY    HP131434   2.085   7.490   3.563  1.6605  0.2223 -0.6068
17639THY    CP231435   1.997   7.396   3.732 -0.1022  0.8245 -0.0734
17639THY    HP231436   1.956   7.295   3.743  0.3581 -0.0963 -0.3706
17639THY    HP331437   1.932   7.469   3.781 -0.4804 -0.1770  0.2785
17639THY    HP431438   2.096   7.402   3.779  0.5538 -0.4844 -0.3187
17639THY    CP331439   1.878   7.465   3.532 -0.1822  0.2205 -0.4894
17639THY    HP531440   1.893   7.494   3.428 -0.6336  0.2140 -0.2676
17639THY    HP631441   1.835   7.549   3.589  2.5083 -1.6357  2.3833
17639THY    HP731442   1.808   7.381   3.532 -1.9874  1.6646  0.9213
17639THY    CA331443   1.991   7.176   3.474  0.4220 -0.4988 -0.3018
17639THY    HA331444   1.896   7.161   3.524  1.3705  1.0687 -1.3674
17639THY    CA431445   2.035   7.067   3.390  0.1987  0.4124  0.2218
17639THY    HA431446   1.970   6.982   3.373  1.2295  0.7177 -0.6523
17639THY    CA531447   2.160   7.082   3.333  0.5332  0.5204 -0.3974
17639THY    CM131448   2.235   6.976   3.262 -0.2993  0.5704 -0.4014
17639THY    HM131449   2.160   6.899   3.240 -2.2909 -2.9769  2.2159
17639THY    HM231450   2.323   6.943   3.318  0.5980 -0.4734  0.1216
17639THY    HM331451   2.262   7.008   3.160  0.7239  1.2914  1.1895
17639THY    CA631452   2.230   7.198   3.351  0.2997  0.1061  0.2966
17639THY    HA631453   2.326   7.213   3.301  0.0853 -0.6678 -0.8072
17640THY      O31454   2.519   2.803   4.329  0.5675 -0.5795 -0.0227
17640THY     HO31455   2.460   2.872   4.365 -1.0827 -2.3796 -0.4041
17640THY    CA131456   2.506   2.820   4.195 -0.0134 -0.0608 -0.0175
17640THY    CA231457   2.565   2.737   4.099  0.1313  0.1339 -0.6688
17640THY    CP131458   2.661   2.625   4.142  0.4434 -0.4394  0.0536
17640THY    HP131459   2.667   2.630   4.251  2.4767 -0.4855 -0.7880
17640THY    CP231460   2.813   2.655   4.097  0.4364  0.2188  0.1795
17640THY    HP231461   2.873   2.571   4.136  0.7147  0.0050  0.2765
17640THY    HP331462   2.857   2.747   4.137  2.3923  0.1983 -0.6867
17640THY    HP431463   2.824   2.661   3.989 -0.6332  0.0539 -0.5335
17640THY    CP331464   2.623   2.486   4.097  0.3261  0.5135  0.3054
17640THY    HP531465   2.648   2.471   3.991 -3.2191 -0.2557 -1.4495
17640THY    HP631466   2.514   2.480   4.105  0.3873  1.1159 -0.0797
17640THY    HP731467   2.668   2.409   4.160  2.9181 -1.0000  0.4593
17640THY    CA331468   2.543   2.759   3.963 -0.1800 -0.2530  0.0707
17640THY    HA331469   2.581   2.693   3.886  2.3053 -0.9591  2.1839
17640THY    CA431470   2.458   2.869   3.931  0.1279  0.4867  0.3322
17640THY    HA431471   2.437   2.880   3.824 -0.9486  0.7014  0.5011
17640THY    CA531472   2.408   2.959   4.023 -0.0924  0.1124  0.7423
17640THY    CM131473   2.325   3.082   3.988  0.2176  0.8503  0.0557
17640THY    HM131474   2.360   3.127   3.895  0.9951  1.5719  0.9876
17640THY    HM231475   2.319   3.161   4.064  1.7930 -0.7794  1.8370
17640THY    HM331476   2.220   3.056   3.969  0.1126 -1.8707  1.9689
17640THY    CA631477   2.428   2.930   4.155  0.3016 -0.4069 -0.4764
17640THY    HA631478   2.379   2.988   4.232 -2.1142 -2.9593  1.1450
17641THY      O31479   4.931   2.495   3.637  0.2403  0.9987  0.3786
17641THY     HO31480   5.005   2.497   3.701 -0.6909  2.0782  1.8752
17641THY    CA131481   4.980   2.543   3.525  0.1338  0.5421  0.3308
17641THY    CA231482   4.902   2.551   3.409 -0.1566 -0.0919 -0.1242
17641THY    CP131483   4.746   2.529   3.414  0.3145 -0.2907 -0.2547
17641THY    HP131484   4.723   2.521   3.521  2.4449  0.3335  1.1474
17641THY    CP231485   4.694   2.402   3.356 -0.1219 -0.3083  0.4271
17641THY    HP231486   4.760   2.318   3.384 -0.9299  3.1676  0.8103
17641THY    HP331487   4.690   2.407   3.246 -3.3968 -0.3141 -0.3065
17641THY    HP431488   4.597   2.373   3.397  1.1687  2.2307 -0.6459
17641THY    CP331489   4.663   2.652   3.365  0.5011 -0.2494  0.1390
17641THY    HP531490   4.613   2.620   3.273  1.5844 -0.9944  0.5222
17641THY    HP631491   4.719   2.744   3.344  1.5756  0.5130 -0.3291
17641THY    HP731492   4.583   2.675   3.436  0.8797 -0.1180  1.1044
17641THY    CA331493   4.963   2.605   3.292 -0.8706  0.4181  0.2868
17641THY    HA331494   4.901   2.638   3.209 -0.5340 -0.3146 -0.8443
17641THY    CA431495   5.101   2.634   3.289 -0.3963  0.0225  0.1574
17641THY    HA431496   5.149   2.687   3.207  1.0378  1.6959  1.6019
17641THY    CA531497   5.178   2.620   3.411 -0.4281 -0.0520  0.5221
17641THY    CM131498   5.326   2.644   3.415  0.1061 -0.4713 -0.1029
17641THY    HM131499   5.341   2.714   3.498 -2.0260 -0.4949  0.4514
17641THY    HM231500   5.345   2.692   3.318 -0.5535  0.3225  1.8410
17641THY    HM331501   5.381   2.549   3.420 -0.8005  0.3605 -0.6094
17641THY    CA631502   5.117   2.569   3.524  0.1001 -0.4499  0.3798
17641THY    HA631503   5.176   2.554   3.613  1.3307 -1.3494 -0.2594
17642THY      O31504   3.736   5.995   3.547 -0.0071  0.2006 -0.2669
17642THY     HO31505   3.730   6.005   3.450  1.1725  0.0640 -0.7514
17642THY    CA131506   3.619   5.931   3.576  0.1035 -0.3423 -0.3418
17642THY    CA231507   3.595   5.880   3.709 -0.1105  0.2019 -0.5159
17642THY    CP131508   3.696   5.895   3.821  0.2401 -0.2267 -0.6429
17642THY    HP131509   3.730   5.999   3.811 -3.9831 -1.3847  0.8613
17642THY    CP231510   3.819   5.803   3.797 -0.8346 -0.1952  0.2480
17642THY    HP231511   3.778   5.704   3.774 -0.8226 -1.1278  0.4470
17642THY    HP331512   3.874   5.784   3.890 -1.6216  0.2419  0.1112
17642THY    HP431513   3.889   5.835   3.718 -0.3640 -0.0813 -0.4486
17642THY    CP331514   3.640   5.881   3.964  0.2831 -0.6461 -0.0317
17642THY    HP531515   3.645   5.777   3.997 -0.4265  1.0540  0.4431
17642THY    HP631516   3.534   5.906   3.969  0.6776  2.6270  1.4454
17642THY    HP731517   3.684   5.945   4.042 -1.3381  0.3686 -0.1133
17642THY    CA331518   3.475   5.808   3.724  0.1420 -0.2272 -0.4817
17642THY    HA331519   3.463   5.762   3.822  1.6576  0.1990 -0.0246
17642THY    CA431520   3.381   5.790   3.617 -0.4289  0.0189 -0.3942
17642THY    HA431521   3.290   5.736   3.642 -0.3932 -0.2447 -0.5768
17642THY    CA531522   3.404   5.851   3.491  0.4264  0.2475  0.7681
17642THY    CM131523   3.314   5.833   3.374  0.7115  0.5897 -0.9404
17642THY    HM131524   3.224   5.893   3.389 -0.6760 -1.0690 -2.4798
17642THY    HM231525   3.290   5.726   3.360  3.6675  0.9272 -1.7348
17642THY    HM331526   3.359   5.873   3.282 -3.6775  0.2289  4.2606
17642THY    CA631527   3.523   5.931   3.482 -0.1815 -0.2647 -0.7002
17642THY    HA631528   3.542   5.979   3.386  1.8350  0.8734  0.9226
17643THY      O31529   4.656   5.936   1.770 -0.0926 -0.0004  0.2323
17643THY     HO31530   4.607   6.017   1.745 -0.9187 -0.4872 -0.4014
17643THY    CA131531   4.787   5.975   1.764  0.3159  0.4746 -0.0333
17643THY    CA231532   4.891   5.901   1.820 -0.7924 -0.1974  0.4139
17643THY    CP131533   4.862   5.766   1.886  0.8978 -0.2402  0.4059
17643THY    HP131534   4.756   5.745   1.900  0.6950 -1.6670  0.4021
17643THY    CP231535   4.935   5.744   2.023 -0.0972 -0.2389 -0.1920
17643THY    HP231536   5.041   5.740   1.995  0.0129 -0.2086  1.7451
17643THY    HP331537   4.891   5.656   2.071  0.4354  0.5953 -0.0124
17643THY    HP431538   4.924   5.836   2.082  1.1488 -1.6599  0.9351
17643THY    CP331539   4.894   5.648   1.790 -0.5615  0.6450 -0.1607
17643THY    HP531540   4.841   5.655   1.694  0.3519 -0.3236 -4.2648
17643THY    HP631541   4.880   5.558   1.851 -1.3400  0.0492 -0.4511
17643THY    HP731542   4.998   5.674   1.767 -1.3529 -0.3278  2.4817
17643THY    CA331543   5.022   5.953   1.809  1.1918  0.3005 -0.1385
17643THY    HA331544   5.101   5.899   1.862  0.6025 -0.1343 -1.4796
17643THY    CA431545   5.046   6.069   1.743 -0.6929  0.3513 -0.1278
17643THY    HA431546   5.148   6.103   1.724 -0.8729  0.1560  0.3110
17643THY    CA531547   4.937   6.146   1.690 -0.2671  0.6184 -0.2363
17643THY    CM131548   4.959   6.283   1.635 -0.1679  0.2293  0.3914
17643THY    HM131549   4.896   6.354   1.689 -0.3157 -1.6558  1.7812
17643THY    HM231550   4.942   6.290   1.527  0.3920  0.0754 -0.4724
17643THY    HM331551   5.066   6.306   1.642  0.1333 -1.1202 -0.4542
17643THY    CA631552   4.806   6.095   1.700 -0.2843  0.4162  0.1357
17643THY    HA631553   4.728   6.161   1.663  0.8702 -0.8571  0.8501
17644THY      O31554   5.212   8.368   3.136 -0.4818  0.0025 -0.3708
17644THY     HO31555   5.136   8.427   3.121 -1.3643 -0.9530 -1.6633
17644THY    CA131556   5.161   8.244   3.119 -0.2210 -0.2879  0.7824
17644THY    CA231557   5.233   8.137   3.093 -0.2439 -0.0874  0.1532
17644THY    CP131558   5.385   8.158   3.072  0.7017 -0.2885  0.3613
17644THY    HP131559   5.411   8.263   3.056  0.4756 -1.9687  0.1779
17644THY    CP231560   5.417   8.085   2.937 -0.1391  0.1194 -0.5074
17644THY    HP231561   5.522   8.097   2.907  0.2097  1.0258 -1.1269
17644THY    HP331562   5.358   8.113   2.849 -2.1331  1.2345 -0.9906
17644THY    HP431563   5.400   7.978   2.955  0.0769  0.0144 -0.5607
17644THY    CP331564   5.476   8.109   3.184  0.1000 -0.2761  0.4892
17644THY    HP531565   5.428   8.127   3.281 -0.2688 -0.5750  1.1567
17644THY    HP631566   5.572   8.162   3.192 -1.1774 -2.4764  3.4038
17644THY    HP731567   5.491   8.000   3.178 -1.4905  1.5309  0.1040
17644THY    CA331568   5.172   8.010   3.086 -0.3151 -0.1620 -0.2796
17644THY    HA331569   5.231   7.920   3.078  1.4891 -2.5725  1.0101
17644THY    CA431570   5.037   7.995   3.119  0.1970  0.7320 -0.6063
17644THY    HA431571   5.000   7.893   3.121  1.5726  2.8381 -1.1241
17644THY    CA531572   4.964   8.108   3.149  0.5710  0.3567 -0.0619
17644THY    CM131573   4.819   8.094   3.198  0.2519 -0.2319 -0.0258
17644THY    HM131574   4.832   8.087   3.306 -2.8869  0.1706 -1.2939
17644THY    HM231575   4.768   8.004   3.161 -2.3847 -0.5202  1.5069
17644THY    HM331576   4.757   8.181   3.175 -0.3911  1.4800  0.0105
17644THY    CA631577   5.021   8.232   3.143 -0.3522 -0.6252 -0.1111
17644THY    HA631578   4.960   8.320   3.161 -2.0653 -1.1489 -1.1377
17645THY      O31579   7.423   6.536   6.715 -0.1684  0.2916 -0.2754
17645THY     HO31580   7.380   6.453   6.689  1.7601 -0.6749 -1.0354
17645THY    CA131581   7.480   6.502   6.829 -0.9991  0.1402 -0.2243
17645THY    CA231582   7.574   6.591   6.897 -0.4711 -0.6103 -0.2074
17645THY    CP131583   7.621   6.723   6.828 -0.6839  0.2950  0.3916
17645THY    HP131584   7.528   6.763   6.787 -0.7073 -0.0156  0.0202
17645THY    CP231585   7.717   6.700   6.713  0.2247  0.5408 -0.0706
17645THY    HP231586   7.662   6.623   6.657  0.3889  0.8786 -0.4398
17645THY    HP331587   7.811   6.654   6.746 -0.6453  2.3181 -0.6754
17645THY    HP431588   7.731   6.795   6.661 -0.1867 -1.3763 -1.0027
17645THY    CP331589   7.676   6.835   6.917 -0.3860  0.4228  0.5072
17645THY    HP531590   7.597   6.860   6.988 -1.9457 -0.5018 -1.4558
17645THY    HP631591   7.707   6.922   6.857 -0.8639 -0.7603 -0.1072
17645THY    HP731592   7.770   6.806   6.965  0.2566 -1.0058  0.1310
17645THY    CA331593   7.627   6.554   7.022 -0.3077  0.2672 -0.3770
17645THY    HA331594   7.686   6.625   7.080 -1.7525 -1.3710  2.3326
17645THY    CA431595   7.603   6.426   7.077 -0.0578 -0.1162  0.0342
17645THY    HA431596   7.649   6.391   7.169  0.2940 -0.7598 -1.2508
17645THY    CA531597   7.518   6.343   7.010  0.3354  0.0695  1.0952
17645THY    CM131598   7.479   6.210   7.077  0.3375  0.0047  0.0138
17645THY    HM131599   7.373   6.187   7.060  0.1642  0.8329  0.1825
17645THY    HM231600   7.482   6.220   7.186 -1.5033  0.5606 -3.6318
17645THY    HM331601   7.544   6.127   7.048 -0.2877 -0.0988 -0.4460
17645THY    CA631602   7.456   6.371   6.891 -0.8704 -0.5551 -0.4323
17645THY    HA631603   7.390   6.302   6.839  0.0766 -1.4463 -0.6859
17646THY      O31604   3.400   3.476   6.695 -0.3351 -0.1801 -0.1974
17646THY     HO31605   3.475   3.446   6.641  0.2448  1.0108 -0.9481
17646THY    CA131606   3.391   3.399   6.807  0.1127  0.2131 -0.1884
17646THY    CA231607   3.374   3.451   6.939 -0.4186 -0.1276  0.8303
17646THY    CP131608   3.365   3.604   6.957 -0.3760  0.1221  0.2351
17646THY    HP131609   3.347   3.651   6.860  2.3434 -0.5240  0.1002
17646THY    CP231610   3.494   3.665   7.010 -0.7102 -0.0213 -0.5986
17646THY    HP231611   3.498   3.683   7.118  1.5162 -0.0864 -0.4255
17646THY    HP331612   3.503   3.761   6.956  0.4111 -1.3316 -1.4146
17646THY    HP431613   3.584   3.611   6.979  0.1977 -0.6472  1.1884
17646THY    CP331614   3.250   3.657   7.041  0.1729  0.6686  0.8475
17646THY    HP531615   3.250   3.766   7.025  2.2651  0.3140  0.8333
17646THY    HP631616   3.279   3.626   7.142  1.4525 -0.1414 -0.7153
17646THY    HP731617   3.155   3.608   7.018 -0.4742  0.6918  2.0428
17646THY    CA331618   3.379   3.358   7.053 -0.7174  0.2673 -0.2048
17646THY    HA331619   3.368   3.394   7.155 -0.0935 -0.7625  3.2758
17646THY    CA431620   3.389   3.225   7.022 -0.1006 -0.3359  0.2969
17646THY    HA431621   3.395   3.150   7.100 -2.3478 -0.6768 -0.3033
17646THY    CA531622   3.410   3.175   6.891  0.0330  0.0155  0.0481
17646THY    CM131623   3.402   3.029   6.865 -0.2484  0.1128  1.1785
17646THY    HM131624   3.501   2.985   6.878 -0.9712 -0.6409 -0.7966
17646THY    HM231625   3.371   3.017   6.760 -0.8965  0.4879 -0.6448
17646THY    HM331626   3.324   2.980   6.924  1.5359  0.7351 -1.0629
17646THY    CA631627   3.421   3.263   6.785  0.3855  0.1112  0.8272
17646THY    HA631628   3.464   3.231   6.690 -1.3980  0.3178 -2.6275
17647THY      O31629   1.985   3.684   3.729  0.4244  0.3537 -0.0146
17647THY     HO31630   1.974   3.675   3.825  0.2541  0.7465  3.2182
17647THY    CA131631   1.895   3.785   3.710 -0.2411 -0.5418  0.2771
17647THY    CA231632   1.818   3.797   3.595 -0.0079 -0.8949 -0.0641
17647THY    CP131633   1.831   3.703   3.482  0.0193  0.2648  0.5066
17647THY    HP131634   1.900   3.620   3.498 -0.9759 -1.5552 -0.7533
17647THY    CP231635   1.862   3.786   3.354 -0.4422 -0.0940 -0.3783
17647THY    HP231636   1.967   3.814   3.358 -0.8085  1.8411  0.8925
17647THY    HP331637   1.795   3.870   3.332 -0.6955 -0.5685 -0.6984
17647THY    HP431638   1.862   3.718   3.268 -1.6974 -1.4513  1.2504
17647THY    CP331639   1.703   3.631   3.463 -0.8236 -0.1968  0.2096
17647THY    HP531640   1.706   3.540   3.524  0.5861 -0.0600  0.3196
17647THY    HP631641   1.696   3.606   3.357  3.2977 -0.1346 -2.2195
17647THY    HP731642   1.615   3.688   3.495 -0.3941 -2.1929  2.0918
17647THY    CA331643   1.718   3.904   3.592  0.1782  0.1663  0.3929
17647THY    HA331644   1.649   3.921   3.509  0.7968 -0.1538  1.4254
17647THY    CA431645   1.706   3.998   3.696  0.0486  0.2024 -0.7340
17647THY    HA431646   1.626   4.071   3.687 -0.5382 -0.7524 -1.4658
17647THY    CA531647   1.778   3.979   3.810  0.0468  0.5814 -0.1674
17647THY    CM131648   1.766   4.077   3.932  0.4975 -0.0348  0.1205
17647THY    HM131649   1.869   4.111   3.949  0.3888 -0.8089  0.8612
17647THY    HM231650   1.723   4.030   4.021 -1.6466  0.4754  2.7559
17647THY    HM331651   1.712   4.172   3.920 -3.8872 -0.3171 -2.1708
17647THY    CA631652   1.885   3.882   3.812 -0.0194  0.5150 -0.2722
17647THY    HA631653   1.948   3.882   3.900 -1.1535  1.3704  1.0297
17648THY      O31654   4.670   8.524   4.955  0.1814  0.1376 -0.2287
17648THY     HO31655   4.720   8.464   4.897 -0.0237 -0.9131  0.5993
17648THY    CA131656   4.631   8.625   4.885  0.6399 -0.4219  0.1094
17648THY    CA231657   4.591   8.745   4.942 -0.0864 -0.0814 -0.3136
17648THY    CP131658   4.600   8.760   5.095  0.2803  0.3033 -0.2840
17648THY    HP131659   4.666   8.682   5.134 -1.8213  1.3212 -1.6481
17648THY    CP231660   4.463   8.744   5.161  0.5062 -0.3774 -0.0765
17648THY    HP231661   4.459   8.780   5.265 -3.1288 -0.7720  1.1082
17648THY    HP331662   4.444   8.636   5.166 -0.2811  1.0856  0.0977
17648THY    HP431663   4.386   8.791   5.098  0.6857 -2.1189 -1.9719
17648THY    CP331664   4.667   8.893   5.141  0.0554  0.8572 -0.0994
17648THY    HP531665   4.770   8.905   5.105 -0.2155 -0.3056 -1.0007
17648THY    HP631666   4.663   8.910   5.249 -0.5368  0.3198  4.2215
17648THY    HP731667   4.606   8.977   5.107  1.1132  1.1474  0.8141
17648THY    CA331668   4.555   8.849   4.856 -0.0288  0.3933  0.0588
17648THY    HA331669   4.513   8.939   4.901  0.6978  0.2403  0.4845
17648THY    CA431670   4.571   8.832   4.720 -0.0902  0.5246 -0.3233
17648THY    HA431671   4.547   8.916   4.657  0.1854 -2.8570 -2.6014
17648THY    CA531672   4.600   8.707   4.666 -0.2644  0.0721 -0.0003
17648THY    CM131673   4.595   8.689   4.521 -0.5072  0.3936  0.8627
17648THY    HM131674   4.680   8.739   4.472 -1.3134 -1.4617  0.5113
17648THY    HM231675   4.497   8.707   4.475 -0.1450 -1.8520 -2.1522
17648THY    HM331676   4.621   8.587   4.491  0.6111  0.1622  1.1998
17648THY    CA631677   4.628   8.600   4.749  0.4557 -0.0149 -0.0713
17648THY    HA631678   4.654   8.500   4.715 -3.0168 -1.4225 -0.6169
17649THY      O31679   3.587   2.259   3.767 -0.3321 -0.6511  0.4010
17649THY     HO31680   3.662   2.245   3.707  0.3365  0.5616 -1.6966
17649THY    CA131681   3.612   2.366   3.838 -0.0352 -1.0798 -0.6392
17649THY    CA231682   3.513   2.428   3.919 -0.4787 -0.2084  0.6132
17649THY    CP131683   3.369   2.359   3.931 -0.3247  0.6662  0.1573
17649THY    HP131684   3.349   2.313   3.833  0.1451 -1.0061  3.1945
17649THY    CP231685   3.252   2.454   3.938  0.4940 -0.0139 -0.6270
17649THY    HP231686   3.266   2.520   4.025 -0.9800  0.4355 -0.8589
17649THY    HP331687   3.162   2.392   3.945 -0.2034  0.6817  0.4269
17649THY    HP431688   3.250   2.514   3.846  1.0083  1.2087  1.3516
17649THY    CP331689   3.366   2.260   4.047  0.3630  0.5962  0.0289
17649THY    HP531690   3.435   2.185   4.005  0.3720 -0.5480  0.6637
17649THY    HP631691   3.272   2.204   4.050  1.3362 -1.2270 -1.8567
17649THY    HP731692   3.390   2.294   4.148  0.7733  0.2385  0.8198
17649THY    CA331693   3.548   2.536   3.995  0.9479  0.4854 -0.1238
17649THY    HA331694   3.472   2.574   4.062 -0.7245 -1.6639  0.4938
17649THY    CA431695   3.675   2.594   3.984  0.0628 -0.4180 -0.2327
17649THY    HA431696   3.709   2.683   4.037 -0.9916 -3.5193  2.1929
17649THY    CA531697   3.771   2.538   3.899  0.6053 -0.6912 -0.0158
17649THY    CM131698   3.911   2.598   3.879  0.2393 -0.4303  0.2835
17649THY    HM131699   3.909   2.690   3.820 -1.2122 -0.2543  0.3863
17649THY    HM231700   3.988   2.531   3.840  0.6883  1.8181 -0.6202
17649THY    HM331701   3.954   2.635   3.972 -0.5112 -1.1165  3.0955
17649THY    CA631702   3.739   2.422   3.830  1.0462  0.4802 -0.0713
17649THY    HA631703   3.818   2.356   3.795  0.5370  0.9709 -0.9514
17650THY      O31704   7.987   9.167   3.789 -0.2568  0.2371 -0.7170
17650THY     HO31705   7.901   9.158   3.832 -0.8028 -0.5692  0.3070
17650THY    CA131706   7.962   9.144   3.660 -0.0378 -0.4560  0.7431
17650THY    CA231707   8.056   9.146   3.557  0.3175  0.1113  0.4853
17650THY    CP131708   8.201   9.185   3.593  0.3158 -0.3511  0.5424
17650THY    HP131709   8.214   9.200   3.701 -0.7090 -0.2099  0.4887
17650THY    CP231710   8.231   9.319   3.524  0.4058  0.2098 -0.7291
17650THY    HP231711   8.338   9.342   3.533  0.1559  1.1204  0.1393
17650THY    HP331712   8.172   9.403   3.563  0.7251  1.7341 -1.1708
17650THY    HP431713   8.211   9.315   3.416 -0.3158  0.2798  0.3810
17650THY    CP331714   8.301   9.082   3.550 -0.4470 -0.1586 -0.0424
17650THY    HP531715   8.302   9.079   3.440 -2.9041 -0.2504  0.6135
17650THY    HP631716   8.274   8.980   3.581 -1.1898 -1.2246 -0.1796
17650THY    HP731717   8.404   9.108   3.579 -0.4892 -0.5520  0.5834
17650THY    CA331718   8.020   9.093   3.425 -0.2204  0.1474 -0.9404
17650THY    HA331719   8.082   9.086   3.336 -0.1105  0.1101  0.2964
17650THY    CA431720   7.888   9.066   3.398  0.3764  0.0085 -0.5931
17650THY    HA431721   7.852   9.031   3.301  0.1995 -0.8273  1.7152
17650THY    CA531722   7.795   9.080   3.503  0.3009 -0.5749 -0.5113
17650THY    CM131723   7.653   9.054   3.478  0.4529  0.4661  0.2551
17650THY    HM131724   7.581   9.070   3.559  0.0796  0.2463 -0.2918
17650THY    HM231725   7.634   8.959   3.428 -2.2127 -1.4984  1.6922
17650THY    HM331726   7.622   9.129   3.405 -1.3649  0.0369 -0.8650
17650THY    CA631727   7.833   9.107   3.635 -0.2357  0.0143 -0.7978
17650THY    HA631728   7.763   9.111   3.717  0.3681  0.6400 -2.3888
17651THY      O31729   9.215   0.952   2.125  0.5450 -0.3230 -0.3523
17651THY     HO31730   9.273   0.913   2.192  1.0554 -0.4972  0.0893
17651THY    CA131731   9.105   0.870   2.113 -0.0780  0.3998 -0.5236
17651THY    CA231732   8.988   0.925   2.060  0.1640 -0.0217 -0.4267
17651THY    CP131733   8.985   1.077   2.015  0.1717 -0.1969 -0.5938
17651THY    HP131734   9.074   1.131   2.050 -0.1403  1.5819 -1.1566
17651THY    CP231735   8.865   1.159   2.065 -0.2666 -0.3515 -0.4543
17651THY    HP231736   8.864   1.154   2.175  3.0894 -0.2271 -0.5633
17651THY    HP331737   8.769   1.120   2.028 -0.0273 -0.5963 -0.8154
17651THY    HP431738   8.878   1.264   2.037 -0.5378 -0.8821 -0.5569
17651THY    CP331739   8.992   1.074   1.860 -0.0222 -0.1696  0.1024
17651THY    HP531740   8.914   1.005   1.823 -0.8614 -0.9015  1.4004
17651THY    HP631741   9.086   1.028   1.828  0.1721  0.0713  0.3317
17651THY    HP731742   8.996   1.177   1.824 -4.1539  0.9557  0.8350
17651THY    CA331743   8.877   0.841   2.050 -0.2727  0.6443 -0.5688
17651THY    HA331744   8.783   0.888   2.020  0.0764  0.7355  0.2015
17651THY    CA431745   8.889   0.708   2.090  0.1856  0.3631 -0.6251
17651THY    HA431746   8.805   0.639   2.095  0.0145  3.5278 -0.3248
17651THY    CA531747   9.007   0.654   2.146  0.0413  0.2356 -0.2649
17651THY    CM131748   9.013   0.508   2.179 -0.5527 -0.2980 -0.3649
17651THY    HM131749   9.099   0.479   2.242 -0.1202 -0.3557  0.7261
17651THY    HM231750   9.008   0.447   2.088  1.7002  0.1125 -1.2650
17651THY    HM331751   8.923   0.492   2.239 -1.2907 -1.0435  0.8412
17651THY    CA631752   9.119   0.737   2.153 -0.3777  0.9120 -0.3649
17651THY    HA631753   9.218   0.702   2.183 -0.9018  0.5742 -2.2692
17652THY      O31754   6.903   4.538   7.450  0.5131 -0.7024 -0.4497
17652THY     HO31755   6.902   4.632   7.477 -1.0530 -3.7180  0.5180
17652THY    CA131756   6.848   4.477   7.556 -0.3328 -0.2613 -0.0923
17652THY    CA231757   6.827   4.341   7.563  0.6017  0.7477  0.9165
17652THY    CP131758   6.871   4.242   7.444 -0.5729 -0.2249 -0.4000
17652THY    HP131759   6.899   4.298   7.354  0.8277  0.7651  0.5623
17652THY    CP231760   6.748   4.150   7.405 -0.8911 -0.0895 -0.2264
17652THY    HP231761   6.658   4.209   7.386 -0.2096 -3.1058 -0.0002
17652THY    HP331762   6.718   4.081   7.484 -0.7015  1.3700  1.3064
17652THY    HP431763   6.768   4.098   7.310  1.1616  1.5042 -2.6335
17652THY    CP331764   7.000   4.165   7.480 -0.2755  0.3285 -0.0276
17652THY    HP531765   7.085   4.234   7.476 -0.1187  0.0130 -0.2373
17652THY    HP631766   7.021   4.088   7.405  1.2748  1.0709 -0.3529
17652THY    HP731767   6.995   4.115   7.578 -0.7117  0.6641  0.6596
17652THY    CA331768   6.773   4.291   7.685  0.5026 -0.0069  0.1599
17652THY    HA331769   6.772   4.183   7.701  0.1467  1.7253  0.3820
17652THY    CA431770   6.743   4.381   7.787 -0.0086 -0.1191  0.6065
17652THY    HA431771   6.706   4.345   7.883  0.1297 -0.4108 -0.3312
17652THY    CA531772   6.760   4.517   7.770 -0.5611 -0.3392  0.0581
17652THY    CM131773   6.725   4.619   7.865  0.1713  0.2357 -0.1083
17652THY    HM131774   6.651   4.686   7.820  2.0406  2.5938  3.9654
17652THY    HM231775   6.807   4.690   7.882  0.1970 -3.8367  1.0637
17652THY    HM331776   6.690   4.580   7.962 -1.6623 -0.9355 -1.5255
17652THY    CA631777   6.815   4.563   7.653 -0.0838  0.3696  0.5048
17652THY    HA631778   6.831   4.670   7.648  0.1655  1.0918  0.5071
17653THY      O31779   8.899   8.690   3.306  0.8688 -0.2413 -0.6687
17653THY     HO31780   8.889   8.738   3.222 -1.4087 -0.3164 -1.1474
17653THY    CA131781   9.036   8.671   3.324 -0.6960  0.8960 -0.1908
17653THY    CA231782   9.100   8.546   3.289 -0.6725 -0.6650  0.4094
17653THY    CP131783   9.024   8.426   3.262  0.3846  0.1072 -0.5072
17653THY    HP131784   8.916   8.445   3.257  0.6780  0.5025  1.5617
17653THY    CP231785   9.043   8.326   3.369  0.0952 -0.8515  0.1804
17653THY    HP231786   8.978   8.351   3.454 -4.0276 -3.2719 -1.2739
17653THY    HP331787   9.144   8.316   3.409 -0.5736  0.7185 -0.8059
17653THY    HP431788   9.008   8.226   3.339 -0.4137 -0.8923  0.3653
17653THY    CP331789   9.072   8.358   3.133 -0.2907 -0.3304  0.4074
17653THY    HP531790   9.074   8.441   3.063  0.2956  0.2521  0.8963
17653THY    HP631791   8.998   8.284   3.098 -1.4042  2.6783 -0.0771
17653THY    HP731792   9.175   8.322   3.138 -0.4981  2.3510 -0.0848
17653THY    CA331793   9.242   8.547   3.303 -0.0375 -0.3945  1.3170
17653THY    HA331794   9.286   8.447   3.296 -2.0943 -1.1669  0.4192
17653THY    CA431795   9.315   8.659   3.337 -0.1514  0.2841  0.4235
17653THY    HA431796   9.423   8.650   3.342  0.0001  0.3373  2.0050
17653THY    CA531797   9.251   8.775   3.371  0.0610  0.0943  0.0411
17653THY    CM131798   9.335   8.896   3.403  0.4575  0.5685  0.3113
17653THY    HM131799   9.400   8.912   3.316  1.6738  0.8082 -2.7230
17653THY    HM231800   9.403   8.875   3.485  1.0077  0.1073  0.2726
17653THY    HM331801   9.271   8.979   3.434 -2.0973 -0.2717 -1.2248
17653THY    CA631802   9.109   8.781   3.362 -0.5525 -0.5787 -0.1411
17653THY    HA631803   9.072   8.882   3.372  2.4210  1.7889  0.8578
17654THY      O31804   3.008   0.625   3.906 -0.1068 -0.0614 -0.0619
17654THY     HO31805   3.090   0.594   3.947 -0.0401 -0.8007 -0.9108
17654THY    CA131806   2.925   0.646   4.012 -0.8757  0.4973  0.2744
17654THY    CA231807   2.806   0.713   4.000 -0.1962 -1.2027 -1.0855
17654THY    CP131808   2.760   0.775   3.871  0.3531  0.4494  0.2113
17654THY    HP131809   2.839   0.780   3.794  0.0100  0.1656  1.7639
17654THY    CP231810   2.722   0.925   3.893 -0.0621 -0.3126 -0.1914
17654THY    HP231811   2.741   0.976   3.798  0.7744  0.2970  0.6871
17654THY    HP331812   2.791   0.972   3.964 -0.6425 -0.7180  1.3335
17654THY    HP431813   2.624   0.943   3.941  0.2146 -0.2544  1.3549
17654THY    CP331814   2.633   0.700   3.812  0.2610  0.0586  0.9689
17654THY    HP531815   2.620   0.714   3.704 -0.6021  0.0689  0.3331
17654THY    HP631816   2.543   0.738   3.862 -0.3747 -0.1558 -0.2085
17654THY    HP731817   2.637   0.591   3.826 -0.5239  0.1059  0.9442
17654THY    CA331818   2.727   0.723   4.119  0.3521  0.0641  1.2038
17654THY    HA331819   2.627   0.765   4.110 -0.1161 -4.9087 -0.3062
17654THY    CA431820   2.766   0.673   4.239  1.1044  0.0364  0.2921
17654THY    HA431821   2.703   0.699   4.324 -2.1584 -2.2176  0.3336
17654THY    CA531822   2.894   0.613   4.252  0.3203  0.2003 -0.4611
17654THY    CM131823   2.961   0.593   4.382 -0.3623 -0.0307 -0.2929
17654THY    HM131824   2.897   0.540   4.453  1.8500  1.6606 -0.8423
17654THY    HM231825   2.989   0.693   4.418  2.9852 -2.0330 -0.3609
17654THY    HM331826   3.052   0.537   4.359  0.2763 -1.8841  1.3997
17654THY    CA631827   2.971   0.599   4.133 -0.1816  0.1627 -0.1351
17654THY    HA631828   3.072   0.559   4.136 -0.1475  3.0655 -0.0240
17655THY      O31829   2.683   2.384   3.073  0.5509  0.4159 -0.0468
17655THY     HO31830   2.752   2.337   3.022 -1.5728 -3.6124  0.7767
17655THY    CA131831   2.678   2.333   3.194 -0.2151  0.8230  0.6543
17655THY    CA231832   2.612   2.386   3.300 -0.1461 -0.0237 -0.7373
17655THY    CP131833   2.540   2.525   3.285  0.2382  0.3186  0.7425
17655THY    HP131834   2.572   2.569   3.190  0.7970  0.9351  1.7053
17655THY    CP231835   2.564   2.632   3.388 -0.1722 -0.1103  0.6433
17655THY    HP231836   2.672   2.621   3.406 -0.3162 -0.5884 -2.4640
17655THY    HP331837   2.515   2.604   3.482 -1.0808 -0.4025  1.2061
17655THY    HP431838   2.544   2.739   3.376 -1.3436  1.7519  0.6928
17655THY    CP331839   2.391   2.512   3.279 -0.0993 -0.0826  0.0949
17655THY    HP531840   2.355   2.436   3.350 -1.0666 -1.5602 -0.8829
17655THY    HP631841   2.368   2.474   3.178  2.4915 -0.2761 -1.2447
17655THY    HP731842   2.340   2.609   3.281 -0.0083 -1.4532  0.1879
17655THY    CA331843   2.613   2.319   3.424 -0.0844 -0.6394  0.1002
17655THY    HA331844   2.553   2.357   3.506 -0.8476 -1.5562  0.9113
17655THY    CA431845   2.677   2.198   3.434  0.3946  0.5647 -0.4175
17655THY    HA431846   2.665   2.137   3.523 -0.8593  0.2455 -0.6530
17655THY    CA531847   2.752   2.149   3.329  0.6331  0.3498 -0.5361
17655THY    CM131848   2.826   2.020   3.345 -0.3092  0.1471 -0.2365
17655THY    HM131849   2.764   1.949   3.400  0.9269  0.4608 -1.1089
17655THY    HM231850   2.917   2.026   3.407 -1.1577  1.3519  0.6081
17655THY    HM331851   2.847   1.978   3.246 -1.2523 -0.9122  1.6457
17655THY    CA631852   2.754   2.220   3.208  0.4694 -0.5891  0.8651
17655THY    HA631853   2.804   2.179   3.120 -2.7210 -1.9490 -0.4137
17656THY      O31854   8.312   2.981   4.841 -0.0505 -0.3931 -0.1332
17656THY     HO31855   8.365   3.001   4.762 -2.4271 -2.1171 -0.2693
17656THY    CA131856   8.373   2.885   4.913 -0.0600  0.5031  0.0026
17656THY    CA231857   8.311   2.769   4.964  0.0411  0.2111 -0.5806
17656THY    CP131858   8.165   2.750   4.929  0.2861 -0.3251 -0.4498
17656THY    HP131859   8.124   2.843   4.887 -0.2272 -0.3854 -0.6984
17656THY    CP231860   8.079   2.735   5.055  0.2865 -0.3676 -0.0344
17656THY    HP231861   7.972   2.734   5.031  0.0441  0.6786 -0.6655
17656THY    HP331862   8.083   2.810   5.135 -1.5663 -2.1717  2.1569
17656THY    HP431863   8.095   2.637   5.101 -0.7045 -0.5205 -0.2765
17656THY    CP331864   8.148   2.631   4.829  0.7208 -0.4144  0.4030
17656THY    HP531865   8.177   2.668   4.730 -1.6709 -0.3961  2.6646
17656THY    HP631866   8.042   2.604   4.819  0.5736 -0.2017  0.8803
17656THY    HP731867   8.188   2.542   4.879 -2.9752  0.7762 -0.7785
17656THY    CA331868   8.382   2.681   5.054  0.3755 -0.0909 -0.2428
17656THY    HA331869   8.329   2.598   5.099  0.5883  1.5601  0.4681
17656THY    CA431870   8.513   2.700   5.081  0.0533  0.7281 -0.7478
17656THY    HA431871   8.575   2.643   5.150  1.0867  3.1673  2.9857
17656THY    CA531872   8.570   2.828   5.030 -0.1910 -0.8637  0.8108
17656THY    CM131873   8.704   2.867   5.088  0.4634  0.2181  0.2556
17656THY    HM131874   8.710   2.977   5.091 -1.1643  0.3941  0.3723
17656THY    HM231875   8.791   2.820   5.042  1.0627  0.3746  1.1942
17656THY    HM331876   8.732   2.834   5.188  2.0028 -0.6041 -1.0468
17656THY    CA631877   8.500   2.915   4.951  0.5523 -0.4505  0.3448
17656THY    HA631878   8.554   3.003   4.918 -0.0174  0.5862  1.1113
17657THY      O31879   5.710   3.997   1.829  0.6790 -0.7080 -0.4435
17657THY     HO31880   5.702   4.011   1.733  0.8191 -1.0564 -2.4654
17657THY    CA131881   5.605   3.921   1.862 -0.4113 -0.3522 -0.0409
17657THY    CA231882   5.550   3.923   1.993  0.4467  0.6451  0.7467
17657THY    CP131883   5.612   4.002   2.109 -0.2232 -0.2255  1.5470
17657THY    HP131884   5.692   4.058   2.060  1.1121  0.1339  0.0243
17657THY    CP231885   5.686   3.902   2.216 -0.6440 -0.7335 -0.9265
17657THY    HP231886   5.616   3.842   2.277  1.2265  1.2546 -1.2083
17657THY    HP331887   5.743   3.956   2.292  0.9671 -0.9563 -2.2488
17657THY    HP431888   5.748   3.832   2.159  1.2676 -0.9572  0.8582
17657THY    CP331889   5.523   4.102   2.179 -0.2172 -0.0553 -0.2068
17657THY    HP531890   5.455   4.150   2.107  0.3393  0.5584  1.5717
17657THY    HP631891   5.584   4.183   2.220 -2.0925  1.5963  0.4557
17657THY    HP731892   5.460   4.067   2.262  0.1588  1.2115  1.8966
17657THY    CA331893   5.426   3.858   2.010  0.6667 -0.1535  0.5182
17657THY    HA331894   5.387   3.847   2.111  0.6166 -0.4212 -2.8231
17657THY    CA431895   5.363   3.797   1.903 -0.1177  0.3541 -0.5085
17657THY    HA431896   5.267   3.748   1.917 -0.7115 -0.0777  0.4886
17657THY    CA531897   5.424   3.803   1.781  0.2634 -0.6059 -0.2025
17657THY    CM131898   5.352   3.751   1.656  0.1570  0.2607 -0.2513
17657THY    HM131899   5.402   3.667   1.605 -0.3446  0.0521 -0.4224
17657THY    HM231900   5.350   3.829   1.580  0.8112  0.9444  0.4561
17657THY    HM331901   5.250   3.723   1.683  0.4084 -0.9768 -2.5976
17657THY    CA631902   5.548   3.857   1.758 -0.8914 -0.1376 -0.1814
17657THY    HA631903   5.587   3.849   1.657  0.9483  0.5664 -0.4801
17658THY      O31904   3.083   2.104   6.391  0.5818  0.3770  0.0932
17658THY     HO31905   3.168   2.150   6.400  1.0811  0.4217 -0.7992
17658THY    CA131906   2.998   2.207   6.370 -0.6629  0.2173  0.3672
17658THY    CA231907   2.869   2.184   6.335 -0.0347  0.0528 -0.2053
17658THY    CP131908   2.810   2.045   6.330 -0.1799 -0.7782 -0.0338
17658THY    HP131909   2.861   1.983   6.404  0.8197 -0.4299  1.1740
17658THY    CP231910   2.831   1.979   6.195  0.2554  0.2860  1.1463
17658THY    HP231911   2.757   1.898   6.194 -2.0996  2.8822  3.0564
17658THY    HP331912   2.935   1.944   6.194  0.2033 -0.3694  1.0061
17658THY    HP431913   2.814   2.041   6.106  0.7228 -2.0275 -1.8221
17658THY    CP331914   2.661   2.036   6.366  0.1162  0.6128 -0.4287
17658THY    HP531915   2.622   2.083   6.276  2.4678  0.3425  1.1635
17658THY    HP631916   2.639   2.097   6.455 -2.3587 -0.5646  0.5356
17658THY    HP731917   2.627   1.934   6.387  0.0049  3.2096  0.0618
17658THY    CA331918   2.796   2.295   6.302 -0.2048  0.2176 -0.2337
17658THY    HA331919   2.697   2.270   6.264 -0.0181  0.6652 -1.7310
17658THY    CA431920   2.843   2.431   6.314  0.8505 -0.3291 -0.2529
17658THY    HA431921   2.784   2.521   6.298 -1.2414  1.3506 -1.2541
17658THY    CA531922   2.975   2.441   6.358  0.2936  0.4280 -0.9530
17658THY    CM131923   3.029   2.578   6.383 -0.3822  0.5975  0.5345
17658THY    HM131924   2.944   2.643   6.403  0.2475  2.1391  0.9247
17658THY    HM231925   3.073   2.607   6.286 -0.3563  0.6238  0.5828
17658THY    HM331926   3.097   2.576   6.470  0.8408 -0.2780  1.5732
17658THY    CA631927   3.054   2.330   6.366 -0.3227 -0.6501 -0.1063
17658THY    HA631928   3.157   2.339   6.398  0.0432 -1.3651 -1.5217
17659THY      O31929   2.313   5.060   5.919  0.8609  0.4418  0.3001
17659THY     HO31930   2.314   5.074   6.015  2.1480  0.5424 -0.3335
17659THY    CA131931   2.260   4.943   5.888 -0.0597  0.1075  0.2808
17659THY    CA231932   2.127   4.933   5.841 -0.3543 -0.4392 -0.3320
17659THY    CP131933   2.039   5.063   5.833 -0.5124 -0.1156  0.6392
17659THY    HP131934   2.086   5.152   5.875 -0.7459  0.3795  0.5318
17659THY    CP231935   1.913   5.053   5.922 -0.2812 -0.1939  0.4897
17659THY    HP231936   1.942   5.030   6.025  0.9948 -0.8581 -1.0751
17659THY    HP331937   1.841   4.976   5.891 -0.5165  0.5929  0.3833
17659THY    HP431938   1.852   5.144   5.913 -2.7801 -1.4509 -1.2042
17659THY    CP331939   1.994   5.087   5.689  0.2598 -0.4097 -0.7829
17659THY    HP531940   2.088   5.106   5.636  2.0014  1.8891 -2.3759
17659THY    HP631941   1.929   5.175   5.692 -1.2763  1.9589 -1.9007
17659THY    HP731942   1.928   5.004   5.662 -2.4350  0.8543  0.8205
17659THY    CA331943   2.073   4.805   5.805  0.1227  0.7179 -0.3914
17659THY    HA331944   1.978   4.796   5.753  0.1559  0.2427  1.5004
17659THY    CA431945   2.153   4.692   5.818 -0.6416  0.4133 -0.1546
17659THY    HA431946   2.108   4.603   5.775 -2.2090  1.4408  0.1169
17659THY    CA531947   2.291   4.707   5.850 -0.4959  0.7425 -1.0314
17659THY    CM131948   2.379   4.582   5.850 -0.4685 -0.1808 -0.2389
17659THY    HM131949   2.361   4.526   5.758  1.1480  1.2711 -3.4437
17659THY    HM231950   2.361   4.522   5.940  1.6079 -0.2792 -1.1155
17659THY    HM331951   2.486   4.608   5.853 -0.3327 -1.5370 -0.5894
17659THY    CA631952   2.343   4.826   5.900  0.2392  0.2205 -0.0764
17659THY    HA631953   2.447   4.834   5.931  1.3215 -2.6107 -1.5254
17660THY      O31954   1.839   7.645   4.735  0.6660 -0.2214  0.0005
17660THY     HO31955   1.821   7.714   4.801 -0.4082 -0.8680  0.3517
17660THY    CA131956   1.748   7.544   4.748 -0.2899 -0.4534 -1.2306
17660THY    CA231957   1.724   7.455   4.643 -0.9184  0.6187 -0.4545
17660THY    CP131958   1.800   7.459   4.506  0.5399  0.2490 -0.2135
17660THY    HP131959   1.893   7.514   4.527 -1.5557  5.4023  2.0486
17660THY    CP231960   1.714   7.555   4.413  0.1841 -0.3099  0.3340
17660THY    HP231961   1.737   7.550   4.306 -0.3318 -0.5812  2.6901
17660THY    HP331962   1.726   7.659   4.444  0.3018 -1.0955  0.5612
17660THY    HP431963   1.609   7.525   4.427  0.6913 -0.6411 -1.8213
17660THY    CP331964   1.837   7.321   4.452 -0.5309  0.3803 -0.5484
17660THY    HP531965   1.889   7.256   4.523 -0.5243  0.9862  0.0991
17660THY    HP631966   1.909   7.338   4.370 -0.2838  0.6955 -0.0378
17660THY    HP731967   1.750   7.265   4.415 -1.6011 -1.0862  1.8998
17660THY    CA331968   1.633   7.352   4.669  0.0537  0.4209 -0.5615
17660THY    HA331969   1.616   7.279   4.590  2.2663  1.2300 -2.0491
17660THY    CA431970   1.578   7.333   4.801  0.1273 -0.1799 -0.1810
17660THY    HA431971   1.511   7.249   4.817 -1.3852 -3.1835  0.3485
17660THY    CA531972   1.591   7.431   4.900 -0.4576 -0.1581 -0.0226
17660THY    CM131973   1.532   7.408   5.034  0.1058 -0.0806 -0.9075
17660THY    HM131974   1.577   7.481   5.102  0.3176  0.3808 -1.4633
17660THY    HM231975   1.567   7.307   5.058 -0.3555 -2.9252 -1.8332
17660THY    HM331976   1.423   7.418   5.036 -0.2294 -5.5554 -0.6584
17660THY    CA631977   1.687   7.534   4.875 -0.0561  0.1112 -0.0630
17660THY    HA631978   1.718   7.594   4.960  0.4874  0.5280 -0.9131
17661THY      O31979   9.006   1.884   6.232  0.3977 -0.4935 -0.7457
17661THY     HO31980   9.009   1.924   6.143 -0.5207 -0.6788 -1.0781
17661THY    CA131981   9.005   1.746   6.208  1.3266  0.4177 -0.1518
17661THY    CA231982   9.002   1.643   6.310 -0.7727 -0.4332  0.1999
17661THY    CP131983   9.004   1.678   6.460  0.5376  0.1275  0.1471
17661THY    HP131984   9.033   1.783   6.471 -0.6488 -0.0635  0.5007
17661THY    CP231985   9.103   1.600   6.538  0.2880 -0.4916 -0.4930
17661THY    HP231986   9.189   1.589   6.472 -0.7103 -1.7221 -1.1313
17661THY    HP331987   9.071   1.495   6.543  0.3766 -1.1646 -0.5570
17661THY    HP431988   9.114   1.640   6.640  1.0061 -0.6030 -0.3850
17661THY    CP331989   8.861   1.664   6.514  0.6307  0.1181 -0.6011
17661THY    HP531990   8.793   1.739   6.470 -2.2171  0.7846 -2.6455
17661THY    HP631991   8.865   1.681   6.622 -1.2035 -0.1137  2.1136
17661THY    HP731992   8.813   1.566   6.504 -0.0906  0.5441 -0.3029
17661THY    CA331993   9.026   1.508   6.268  0.6216  0.3160 -0.2746
17661THY    HA331994   9.022   1.421   6.332  0.6396  0.7662  0.0480
17661THY    CA431995   9.023   1.485   6.132  0.5084  0.5401  0.3947
17661THY    HA431996   9.032   1.384   6.094  0.1880 -0.1634  0.6232
17661THY    CA531997   9.030   1.588   6.034 -0.7420 -0.4978 -0.4795
17661THY    CM131998   9.030   1.552   5.892  0.1559  0.2372 -0.9757
17661THY    HM131999   9.087   1.462   5.865  1.3093  0.6831 -0.3978
17661THY    HM232000   9.077   1.628   5.828 -0.2148  0.4518 -0.5606
17661THY    HM332001   8.924   1.552   5.864 -0.3370  1.7812  1.5407
17661THY    CA632002   9.024   1.720   6.076 -0.0322 -0.1925 -0.1562
17661THY    HA632003   9.022   1.801   6.003  3.2869  1.8956  2.0555
17662THY      O32004   2.134   5.941   5.000  0.1653  0.5778  0.8516
17662THY     HO32005   2.182   5.889   5.066  0.0866 -0.8894 -1.2015
17662THY    CA132006   2.028   5.864   4.976 -0.0545 -0.5264 -0.6079
17662THY    CA232007   1.936   5.886   4.871  0.2696 -0.0858 -0.2703
17662THY    CP132008   1.924   6.025   4.795  0.4905  0.4304  0.3457
17662THY    HP132009   1.958   6.104   4.863 -1.3517 -1.0732  2.5477
17662THY    CP232010   1.781   6.075   4.766 -0.0866  0.4204 -0.2904
17662THY    HP232011   1.750   6.025   4.673 -0.7799 -0.3512  1.4698
17662THY    HP332012   1.785   6.184   4.758 -0.1393  0.6783 -0.2696
17662THY    HP432013   1.721   6.048   4.854  0.2094  1.9096  3.3781
17662THY    CP332014   2.004   6.022   4.668 -0.1781  0.6609 -0.4668
17662THY    HP532015   2.111   6.000   4.682 -0.1156  0.5744 -0.2324
17662THY    HP632016   1.988   6.118   4.618 -1.5505 -0.6418 -1.3380
17662THY    HP732017   1.969   5.944   4.599  1.1085 -0.6022  0.0124
17662THY    CA332018   1.860   5.778   4.831 -0.0407  0.6211  0.2230
17662THY    HA332019   1.785   5.797   4.755  1.1638 -0.0362  2.7320
17662THY    CA432020   1.868   5.651   4.885  0.4644  0.3746  0.1607
17662THY    HA432021   1.809   5.562   4.861 -0.0474  1.8114  0.0898
17662THY    CA532022   1.951   5.635   5.000 -0.2595  0.3867 -0.1887
17662THY    CM132023   1.959   5.497   5.073  0.0706  0.3177 -0.1768
17662THY    HM132024   1.889   5.434   5.016  0.3576  1.8379 -1.9387
17662THY    HM232025   1.912   5.500   5.172  1.7331  1.1982 -1.4515
17662THY    HM332026   2.062   5.460   5.072 -0.1320  0.5713 -0.7590
17662THY    CA632027   2.023   5.737   5.047 -0.6420  0.1571  0.4465
17662THY    HA632028   2.077   5.720   5.140 -1.6753  1.1989  2.4772
17663THY      O32029   9.278   1.129   6.681 -0.2310  0.2337  0.3475
17663THY     HO32030   9.361   1.082   6.700  0.4450 -0.6027  1.1635
17663THY    CA132031   9.290   1.182   6.554  0.8816 -1.5520 -0.7963
17663THY    CA232032   9.204   1.140   6.449 -0.2291 -0.0689  0.3061
17663THY    CP132033   9.121   1.021   6.469  0.3545  0.4471  0.6357
17663THY    HP132034   9.095   1.006   6.574 -0.5313  0.0930 -0.4445
17663THY    CP232035   9.190   0.892   6.418  0.7625  0.1643 -0.3559
17663THY    HP232036   9.154   0.809   6.479 -0.0202  3.2962  2.1055
17663THY    HP332037   9.299   0.907   6.421  1.0840 -0.1983 -2.3317
17663THY    HP432038   9.163   0.880   6.312 -1.6302  0.3964  1.9658
17663THY    CP332039   8.987   1.047   6.402  0.4479  0.3895 -0.3878
17663THY    HP532040   8.908   0.980   6.438 -0.5715 -0.5457  0.2855
17663THY    HP632041   8.993   1.027   6.295 -0.9386 -0.0399  1.3129
17663THY    HP732042   8.946   1.145   6.427 -0.5641  0.8888 -0.9153
17663THY    CA332043   9.222   1.202   6.327  0.0676 -0.7580  0.8405
17663THY    HA332044   9.164   1.158   6.246  0.0913 -0.7453  0.7870
17663THY    CA432045   9.331   1.288   6.301  0.1784  0.3663  0.0272
17663THY    HA432046   9.355   1.321   6.200 -0.9598  0.2372  0.5091
17663THY    CA532047   9.404   1.330   6.411  0.3127 -0.0005  0.2219
17663THY    CM132048   9.508   1.435   6.390  0.1120  0.4491  0.2274
17663THY    HM132049   9.553   1.419   6.291 -1.0787 -0.4117  1.7743
17663THY    HM232050   9.584   1.433   6.468 -0.0957  0.6774  0.9400
17663THY    HM332051   9.468   1.536   6.371  1.8868  0.6836  1.0030
17663THY    CA632052   9.381   1.284   6.540  0.0149 -0.6810 -0.1102
17663THY    HA632053   9.430   1.319   6.630  0.8669 -0.9722 -0.5399
17664THY      O32054   4.152   0.549   5.588  0.0850 -0.6926  0.3878
17664THY     HO32055   4.164   0.614   5.517  0.0660  0.4803  1.7235
17664THY    CA132056   4.102   0.631   5.681  0.7112  0.5438 -0.2634
17664THY    CA232057   4.043   0.577   5.797 -0.3257 -0.1389 -0.3001
17664THY    CP132058   4.032   0.426   5.815  0.1776  0.3893 -0.3358
17664THY    HP132059   4.023   0.373   5.719 -0.6083  0.1961  0.1278
17664THY    CP232060   3.905   0.383   5.883  0.4094  0.4297 -0.0357
17664THY    HP232061   3.887   0.277   5.864 -0.7560  0.2026  0.1904
17664THY    HP332062   3.818   0.440   5.848 -0.1366  0.6288 -0.7213
17664THY    HP432063   3.915   0.392   5.992 -1.8899  0.7598 -0.6963
17664THY    CP332064   4.145   0.366   5.895  0.2250  0.0569  0.7303
17664THY    HP532065   4.234   0.403   5.844 -1.3122 -4.1559 -0.8256
17664THY    HP632066   4.159   0.257   5.890  0.2350 -0.7776  0.7661
17664THY    HP732067   4.146   0.387   6.003 -1.2766  0.4303 -0.8231
17664THY    CA332068   3.995   0.667   5.899 -0.1864  0.0151 -0.0341
17664THY    HA332069   3.946   0.641   5.992  0.2856  0.1982 -0.2980
17664THY    CA432070   4.029   0.799   5.884  0.4159 -0.0703  0.1658
17664THY    HA432071   4.001   0.870   5.962  0.9039 -2.0893  2.7300
17664THY    CA532072   4.082   0.853   5.770  0.3428  1.0239  0.3807
17664THY    CM132073   4.094   0.998   5.757 -0.3883 -0.7270 -1.0711
17664THY    HM132074   4.192   1.026   5.718 -0.6191 -1.3372 -1.0971
17664THY    HM232075   4.075   1.050   5.852 -0.6925 -0.8689 -0.9216
17664THY    HM332076   4.014   1.041   5.696  0.4894 -0.0887  1.6822
17664THY    CA632077   4.119   0.761   5.664  0.7480  0.5249 -0.0750
17664THY    HA632078   4.174   0.801   5.579  0.5739  0.2178 -0.4847
17665THY      O32079   8.707   3.234   6.122  0.7410  0.2137  0.1657
17665THY     HO32080   8.695   3.330   6.111 -4.7579  2.0247 -0.0002
17665THY    CA132081   8.822   3.197   6.061  0.3628  0.7435 -0.4304
17665THY    CA232082   8.917   3.121   6.134  0.1472  0.5329  0.3612
17665THY    CP132083   8.865   3.047   6.265  0.1398 -0.1285 -0.3622
17665THY    HP132084   8.772   3.089   6.306 -0.4463  0.8415 -2.4870
17665THY    CP232085   8.959   3.072   6.375 -0.2329  0.1231 -0.4678
17665THY    HP232086   9.005   3.171   6.381  0.2313 -2.6069 -0.4242
17665THY    HP332087   9.042   3.001   6.380 -0.1606  3.5688 -0.2754
17665THY    HP432088   8.901   3.056   6.467  0.9591  0.9111 -0.3731
17665THY    CP332089   8.843   2.898   6.257  0.6142 -0.4860 -0.0529
17665THY    HP532090   8.937   2.843   6.244  0.2885 -1.0140 -0.5039
17665THY    HP632091   8.772   2.882   6.174 -0.0931  0.2908 -1.1511
17665THY    HP732092   8.794   2.873   6.352  3.3264  0.9393 -0.2087
17665THY    CA332093   9.036   3.085   6.067 -0.4579  0.6809 -0.2463
17665THY    HA332094   9.100   3.009   6.110 -0.7779 -0.8595 -1.4192
17665THY    CA432095   9.066   3.142   5.939  0.2450 -0.1030 -0.1419
17665THY    HA432096   9.159   3.123   5.888  0.1648 -1.4295  2.5237
17665THY    CA532097   8.976   3.228   5.878  0.5677  0.1300 -0.0813
17665THY    CM132098   8.999   3.276   5.732 -0.4083 -0.5883 -0.2157
17665THY    HM132099   8.938   3.205   5.675 -1.4572 -0.8716  0.8903
17665THY    HM232100   9.103   3.250   5.710 -0.6796 -0.0678 -1.8477
17665THY    HM332101   8.979   3.383   5.724  2.2691 -0.1261  0.3994
17665THY    CA632102   8.854   3.244   5.933 -0.1623  0.0596  0.4224
17665THY    HA632103   8.778   3.289   5.870 -1.1776  0.7467 -0.2861
17666THY      O32104   2.721   5.238   7.467 -0.1337  0.4289 -0.4156
17666THY     HO32105   2.724   5.157   7.413 -0.4749 -0.9114  0.4411
17666THY    CA132106   2.853   5.268   7.492  0.2455 -1.0062  0.1788
17666THY    CA232107   2.911   5.398   7.468 -0.2622  0.6065  0.2985
17666THY    CP132108   2.820   5.516   7.413  0.7570 -0.1471  0.4575
17666THY    HP132109   2.713   5.493   7.408  0.4897  1.4927  1.1933
17666THY    CP232110   2.876   5.571   7.271  0.1271  0.0515 -0.6907
17666THY    HP232111   2.888   5.488   7.200 -2.0617 -1.5756  0.2938
17666THY    HP332112   2.974   5.615   7.291 -0.5605  2.1520 -0.0040
17666THY    HP432113   2.814   5.643   7.215 -0.2362  3.1936  1.6415
17666THY    CP332114   2.831   5.633   7.512  1.3790  0.1818 -0.2614
17666THY    HP532115   2.936   5.653   7.539  1.5485 -0.0730 -0.7770
17666THY    HP632116   2.774   5.613   7.604  0.4103 -0.6698 -1.5666
17666THY    HP732117   2.784   5.718   7.462 -0.1411 -1.6092 -2.0629
17666THY    CA332118   3.054   5.409   7.485  0.3351  0.2902 -0.0567
17666THY    HA332119   3.099   5.504   7.457 -0.5643 -2.3019 -0.3158
17666THY    CA432120   3.126   5.309   7.532  0.8511  1.4718 -0.1944
17666THY    HA432121   3.235   5.313   7.530  0.8140 -0.2816  0.9909
17666THY    CA532122   3.067   5.184   7.549 -0.2368 -0.1618 -0.1072
17666THY    CM132123   3.158   5.068   7.579  0.4623 -0.3252  0.5955
17666THY    HM132124   3.264   5.076   7.554  0.5153 -0.2590  0.1556
17666THY    HM232125   3.116   4.975   7.538  0.4604 -0.0229  0.4612
17666THY    HM332126   3.154   5.053   7.688  1.3176 -0.4549 -0.7393
17666THY    CA632127   2.930   5.161   7.533  0.9182 -0.2318  0.3686
17666THY    HA632128   2.876   5.068   7.546 -1.0315  0.2799  1.4973
17667THY      O32129   7.096   1.129   2.516  0.2853 -0.2029  0.2410
17667THY     HO32130   7.181   1.134   2.562  0.7109 -1.0646  2.2389
17667THY    CA132131   7.078   1.007   2.467  0.1702 -0.4351  0.2238
17667THY    CA232132   6.947   0.952   2.459 -0.3262  0.3175  0.1698
17667THY    CP132133   6.824   1.041   2.495  0.8159  0.0477 -0.2530
17667THY    HP132134   6.840   1.149   2.500  0.6181 -1.6265 -0.1307
17667THY    CP232135   6.779   0.993   2.623  0.7579 -0.2666  0.2864
17667THY    HP232136   6.851   1.026   2.698  2.9807 -2.4339  0.6966
17667THY    HP332137   6.768   0.885   2.631  0.6930 -0.0867  0.3068
17667THY    HP432138   6.679   1.032   2.647 -0.0672 -0.6417 -1.5264
17667THY    CP332139   6.711   1.012   2.392  0.4534 -0.5790 -0.0589
17667THY    HP532140   6.754   1.033   2.293 -1.8376 -1.4019  1.1902
17667THY    HP632141   6.627   1.080   2.411 -0.0487 -1.0984 -0.5254
17667THY    HP732142   6.666   0.912   2.386 -0.8264 -3.2783  0.5751
17667THY    CA332143   6.936   0.823   2.398  0.5733  0.3517 -0.1962
17667THY    HA332144   6.840   0.774   2.388  0.7480 -0.4487 -0.3855
17667THY    CA432145   7.048   0.749   2.371 -0.4679 -0.3059  0.1497
17667THY    HA432146   7.036   0.644   2.346  1.2019  1.7185 -0.5936
17667THY    CA532147   7.173   0.803   2.378 -0.4681 -0.6775 -0.3201
17667THY    CM132148   7.294   0.724   2.327 -0.6002 -0.4169 -0.1004
17667THY    HM132149   7.279   0.673   2.231  0.2008  0.4593 -2.0633
17667THY    HM232150   7.322   0.648   2.400  0.2108 -0.6731 -0.0634
17667THY    HM332151   7.378   0.792   2.308 -2.3750 -3.0224  1.5815
17667THY    CA632152   7.190   0.931   2.426 -0.2608 -0.1549 -0.5644
17667THY    HA632153   7.291   0.971   2.430  0.2043  0.8661 -1.7796
17668THY      O32154   3.046   3.267   2.391 -0.6284  0.6364 -0.1406
17668THY     HO32155   3.073   3.334   2.326  0.2964  1.4744  0.3301
17668THY    CA132156   3.015   3.152   2.316 -0.2521 -0.2483 -0.2726
17668THY    CA232157   2.957   3.044   2.375 -0.6789 -0.0120  0.6886
17668THY    CP132158   2.926   3.036   2.519 -0.4650  0.4092  0.1606
17668THY    HP132159   2.963   3.123   2.574  2.4196  0.5533 -1.0640
17668THY    CP232160   2.994   2.910   2.590  0.1693  0.1833 -1.5861
17668THY    HP232161   2.947   2.876   2.683  1.2636  1.2653 -0.2834
17668THY    HP332162   3.102   2.918   2.607 -0.2598  2.3474  1.1572
17668THY    HP432163   2.974   2.821   2.529 -2.0712  1.0732 -1.7724
17668THY    CP332164   2.778   3.034   2.543  0.4379  0.3732  0.7146
17668THY    HP532165   2.764   3.058   2.650  0.2407  0.2499  1.1644
17668THY    HP632166   2.729   2.937   2.528 -0.1502  0.8516  0.9275
17668THY    HP732167   2.728   3.108   2.479 -0.4695 -0.2353 -0.3854
17668THY    CA332168   2.915   2.937   2.299 -0.5180 -0.1599  0.3059
17668THY    HA332169   2.860   2.853   2.341 -1.6160  0.0304  1.0943
17668THY    CA432170   2.946   2.928   2.165 -0.2107  0.0965  0.7272
17668THY    HA432171   2.925   2.839   2.107  0.4170 -0.8442  1.1770
17668THY    CA532172   3.016   3.033   2.106 -0.5279  0.1679 -1.2650
17668THY    CM132173   3.055   3.024   1.957  0.4530  0.0615  0.3113
17668THY    HM132174   2.997   2.948   1.905 -0.5967 -0.2013  1.2782
17668THY    HM232175   3.158   2.987   1.958  0.4507 -0.1508  0.2985
17668THY    HM332176   3.056   3.115   1.896 -0.2611 -0.2808  0.0915
17668THY    CA632177   3.047   3.152   2.181  0.1454  0.1058 -0.5233
17668THY    HA632178   3.087   3.236   2.126  2.1422  1.5401 -0.4373
17669THY      O32179   2.153   4.605   3.154 -0.1839 -0.2248  0.5244
17669THY     HO32180   2.094   4.527   3.149  0.3571  0.0084  0.0968
17669THY    CA132181   2.084   4.699   3.081 -0.2028  0.3584  0.6552
17669THY    CA232182   2.153   4.789   3.000  0.7397 -0.2000  0.1653
17669THY    CP132183   2.312   4.801   2.996 -0.3761 -0.4521  0.5178
17669THY    HP132184   2.351   4.698   2.992  0.0901  1.7876  0.5518
17669THY    CP232185   2.368   4.875   3.124  0.3161  0.3301  0.4035
17669THY    HP232186   2.315   4.970   3.114 -0.0805  0.0838  0.1623
17669THY    HP332187   2.477   4.883   3.123  0.4663 -1.1273 -1.2041
17669THY    HP432188   2.348   4.811   3.210  1.1962  1.2245  1.3030
17669THY    CP332189   2.363   4.864   2.875 -0.2982  0.2257  0.4546
17669THY    HP532190   2.339   4.969   2.855 -0.1372 -0.1446  0.4212
17669THY    HP632191   2.344   4.814   2.780 -0.2823 -0.3905  1.5753
17669THY    HP732192   2.472   4.862   2.883 -0.3406  0.7420 -0.8065
17669THY    CA332193   2.071   4.880   2.927 -0.2954  0.1723 -0.9443
17669THY    HA332194   2.117   4.960   2.869  0.1593  1.2021 -0.4394
17669THY    CA432195   1.929   4.874   2.938  0.4178 -0.2247  0.5492
17669THY    HA432196   1.868   4.940   2.876  0.3819  0.9377  1.6402
17669THY    CA532197   1.873   4.772   3.015 -0.4988  0.1563 -0.1896
17669THY    CM132198   1.729   4.753   3.017  0.4229  0.2894 -0.2411
17669THY    HM132199   1.705   4.713   2.918  0.7168  0.9249 -2.1165
17669THY    HM232200   1.673   4.847   3.025  0.3189 -1.3064 -0.1361
17669THY    HM332201   1.699   4.684   3.096  1.0964 -0.6906 -1.7159
17669THY    CA632202   1.950   4.685   3.086 -0.4206 -0.3752 -0.5291
17669THY    HA632203   1.912   4.614   3.160 -0.6814 -0.0168 -0.0276
17670THY      O32204   6.177   5.615   4.602 -0.2107 -0.0401  0.2686
17670THY     HO32205   6.248   5.617   4.535 -0.1073  0.0461 -0.3453
17670THY    CA132206   6.058   5.599   4.543  0.1247 -0.1635 -0.3846
17670THY    CA232207   5.943   5.648   4.597 -0.0238 -0.3019  0.0208
17670THY    CP132208   5.940   5.726   4.727 -0.0000 -0.4933 -0.1005
17670THY    HP132209   6.039   5.722   4.774  0.7870 -2.0665 -0.2693
17670THY    CP232210   5.854   5.672   4.845  0.5582  1.0027  0.5052
17670THY    HP232211   5.879   5.565   4.855  0.9747 -3.2618  0.0222
17670THY    HP332212   5.749   5.694   4.823  0.8363 -0.9075  0.1027
17670THY    HP432213   5.883   5.723   4.937  1.2089  0.9150  0.3166
17670THY    CP332214   5.894   5.870   4.696  0.7328 -0.4204  0.5558
17670THY    HP532215   5.876   5.936   4.782  0.8314 -0.2744  0.3914
17670THY    HP632216   5.802   5.871   4.637 -1.0602  2.1656 -0.2796
17670THY    HP732217   5.974   5.917   4.637 -0.0846 -0.6977  1.6286
17670THY    CA332218   5.820   5.618   4.534  0.3341  0.1872 -0.3487
17670THY    HA332219   5.729   5.657   4.579  0.1199 -1.1537  0.7816
17670THY    CA432220   5.829   5.551   4.406 -0.0949 -0.6311  0.1600
17670THY    HA432221   5.739   5.521   4.353 -0.6491  1.4947 -2.3014
17670THY    CA532222   5.950   5.512   4.349 -0.1499  0.5673 -0.9220
17670THY    CM132223   5.955   5.453   4.210 -0.2468 -0.0607 -1.2296
17670THY    HM132224   5.919   5.533   4.144 -0.0221  0.0457 -1.0378
17670THY    HM232225   5.887   5.368   4.198 -1.1612  3.1238 -1.1020
17670THY    HM332226   6.053   5.413   4.181  1.4574 -0.0759  2.4814
17670THY    CA632227   6.068   5.540   4.418  0.2690 -0.6932 -0.1560
17670THY    HA632228   6.165   5.512   4.378  1.7539  1.3096  1.8135
17671THY      O32229   1.988   3.531   6.752  0.2233 -0.0876  0.2225
17671THY     HO32230   1.911   3.481   6.782 -0.4080 -1.4316  0.3294
17671THY    CA132231   1.984   3.640   6.838 -0.1251 -0.3617 -0.1014
17671THY    CA232232   2.069   3.746   6.817 -0.6207 -0.0734 -0.2950
17671THY    CP132233   2.170   3.742   6.702 -0.0239 -0.7484  0.2790
17671THY    HP132234   2.203   3.638   6.698 -0.1761  0.3422  0.1843
17671THY    CP232235   2.304   3.819   6.723 -1.8099 -0.0714 -0.0218
17671THY    HP232236   2.385   3.747   6.706 -2.6108 -0.1784 -0.9294
17671THY    HP332237   2.317   3.848   6.828 -0.2475 -0.0481 -0.6935
17671THY    HP432238   2.315   3.911   6.664 -0.8839  1.6598  1.0210
17671THY    CP332239   2.105   3.767   6.562  0.0727 -0.0162 -0.5879
17671THY    HP532240   2.183   3.765   6.484 -0.5474 -0.6552 -0.1946
17671THY    HP632241   2.049   3.861   6.556  1.1846 -0.2110  0.0800
17671THY    HP732242   2.034   3.687   6.538 -0.9044 -0.7202  0.4597
17671THY    CA332243   2.061   3.857   6.901 -0.6060  0.6048 -0.0380
17671THY    HA332244   2.131   3.940   6.893 -1.8675 -1.2760  0.9018
17671THY    CA432245   1.967   3.857   7.007 -0.6508 -0.7368  0.2277
17671THY    HA432246   1.966   3.934   7.084  1.5856  1.5470 -1.8556
17671THY    CA532247   1.881   3.748   7.021 -0.4281  0.3754 -0.1671
17671THY    CM132248   1.775   3.756   7.134 -0.6499 -0.1703  0.0574
17671THY    HM132249   1.822   3.781   7.229  0.4567 -0.8523  0.6492
17671THY    HM232250   1.735   3.655   7.149  1.3205  0.3213 -0.7052
17671THY    HM332251   1.693   3.827   7.120 -0.2174  1.4910  0.9323
17671THY    CA632252   1.886   3.638   6.934  0.2929 -0.2335 -0.2479
17671THY    HA632253   1.817   3.556   6.952  1.2597  0.8349 -0.8650
17672THY      O32254   8.084   1.602   3.658 -0.0883 -0.0390 -0.5878
17672THY     HO32255   8.012   1.546   3.625  0.0299  0.9932 -1.3749
17672THY    CA132256   8.148   1.665   3.559 -0.6036  0.2450 -0.2648
17672THY    CA232257   8.174   1.802   3.563 -0.3008 -0.2878 -1.4276
17672THY    CP132258   8.119   1.880   3.691  0.1064  0.1257  0.1982
17672THY    HP132259   8.023   1.842   3.728 -0.4763  1.6117  2.8335
17672THY    CP232260   8.104   2.032   3.668 -0.3260 -0.2481  0.1188
17672THY    HP232261   8.045   2.078   3.748 -0.6130 -1.8121  2.6135
17672THY    HP332262   8.067   2.057   3.568 -1.6780  0.3038  0.4092
17672THY    HP432263   8.203   2.081   3.667 -0.8514 -0.4417  1.1969
17672THY    CP332264   8.219   1.855   3.802 -0.0273  0.2743  0.1317
17672THY    HP532265   8.231   1.749   3.827 -0.4267 -1.1108 -0.2582
17672THY    HP632266   8.193   1.899   3.899 -1.3469  0.0907 -0.1756
17672THY    HP732267   8.314   1.905   3.780 -1.1611 -2.0567  1.4526
17672THY    CA332268   8.256   1.860   3.465  0.3464 -0.5375  0.1061
17672THY    HA332269   8.281   1.966   3.466 -0.1476  0.8512  0.2365
17672THY    CA432270   8.314   1.778   3.367 -0.6209 -0.7967 -0.0007
17672THY    HA432271   8.391   1.820   3.303  0.2547 -0.4263 -0.9888
17672THY    CA532272   8.288   1.642   3.366  0.1297 -0.0899  0.5066
17672THY    CM132273   8.364   1.549   3.272 -0.0712 -0.3391  0.2270
17672THY    HM132274   8.319   1.449   3.264  0.7529 -0.5898 -0.1278
17672THY    HM232275   8.471   1.554   3.293 -0.2751  0.9499 -0.3159
17672THY    HM332276   8.371   1.574   3.166  3.2453 -0.9626 -2.6808
17672THY    CA632277   8.213   1.583   3.466  0.8135  0.1673 -0.3027
17672THY    HA632278   8.213   1.475   3.476  0.1300 -2.4373 -0.6226
17673THY      O32279   2.589   7.231   3.478 -0.0776  0.2336 -0.2113
17673THY     HO32280   2.561   7.276   3.560 -1.8543  0.3834 -1.4690
17673THY    CA132281   2.621   7.106   3.519  0.6899  0.1377  0.2299
17673THY    CA232282   2.527   7.010   3.576 -0.6431 -0.6441 -0.6521
17673THY    CP132283   2.388   7.056   3.632  0.2738 -0.1693  0.7343
17673THY    HP132284   2.337   7.123   3.562 -3.4301  0.8575 -0.7850
17673THY    CP232285   2.412   7.118   3.764 -0.0131 -0.5529 -0.1931
17673THY    HP232286   2.318   7.158   3.804  0.2498  0.6108 -0.6880
17673THY    HP332287   2.494   7.190   3.764  0.4124  0.3112 -0.6580
17673THY    HP432288   2.437   7.045   3.841 -1.9109  0.1401 -0.1825
17673THY    CP332289   2.283   6.942   3.649  0.4199 -0.3086 -0.3845
17673THY    HP532290   2.298   6.900   3.750 -0.1569  0.0779  0.3260
17673THY    HP632291   2.291   6.865   3.571 -0.2879 -0.9835  0.2176
17673THY    HP732292   2.186   6.990   3.635  0.8079 -2.1436 -0.0831
17673THY    CA332293   2.573   6.880   3.593  0.0752  0.3050 -0.3964
17673THY    HA332294   2.519   6.809   3.655 -0.5355 -0.9040 -1.0172
17673THY    CA432295   2.701   6.843   3.549  0.2577 -0.1383  0.3599
17673THY    HA432296   2.748   6.748   3.572  1.2481  0.3199  0.9365
17673THY    CA532297   2.787   6.930   3.489  0.4291  0.4375 -0.7666
17673THY    CM132298   2.926   6.883   3.438 -0.3592 -0.1947  0.4951
17673THY    HM132299   2.938   6.849   3.335 -0.0732  0.1559 -0.4950
17673THY    HM232300   2.966   6.797   3.493  0.2213 -1.9162 -0.3935
17673THY    HM332301   2.996   6.966   3.451  0.2944 -0.2646 -0.0310
17673THY    CA632302   2.748   7.067   3.473  0.8567  0.3364 -0.4544
17673THY    HA632303   2.817   7.139   3.431 -0.6707 -0.0460  0.8250
17674THY      O32304   6.015   8.223   6.103  0.0420  0.3197 -0.1342
17674THY     HO32305   6.037   8.133   6.132 -1.4845 -1.0776 -1.0228
17674THY    CA132306   6.049   8.303   6.200  0.0541 -0.3996  0.1270
17674THY    CA232307   5.983   8.427   6.225 -0.3442 -0.2775 -0.2225
17674THY    CP132308   5.859   8.461   6.143 -0.2298  0.5222 -0.2237
17674THY    HP132309   5.875   8.415   6.044 -0.9172  0.0232  0.5785
17674THY    CP232310   5.850   8.608   6.133 -0.2639  0.2471 -0.5796
17674THY    HP232311   5.948   8.640   6.094  1.5059  1.6914 -3.7614
17674THY    HP332312   5.826   8.670   6.220  0.7962 -0.7169  1.2525
17674THY    HP432313   5.774   8.640   6.061  0.9669 -0.4785  0.8375
17674THY    CP332314   5.735   8.403   6.209  0.1010 -0.0082 -0.2565
17674THY    HP532315   5.637   8.440   6.174 -0.1396 -2.7301 -3.1148
17674THY    HP632316   5.744   8.420   6.317  0.9681  0.2743 -2.3288
17674THY    HP732317   5.729   8.294   6.204 -2.4847  1.4703 -0.2721
17674THY    CA332318   6.036   8.506   6.330 -0.5677 -0.2396 -0.4583
17674THY    HA332319   5.991   8.602   6.353 -1.2790 -0.1404 -0.8043
17674THY    CA432320   6.151   8.467   6.406  0.7258  0.3029  0.2619
17674THY    HA432321   6.200   8.529   6.479 -2.3092  1.5613  1.3660
17674THY    CA532322   6.198   8.338   6.387  0.0590  0.5740 -0.0371
17674THY    CM132323   6.305   8.284   6.468  0.1989  0.1085  0.1615
17674THY    HM132324   6.356   8.366   6.520  0.3777  1.2563 -0.6484
17674THY    HM232325   6.388   8.250   6.405  1.1542  1.4669 -0.0861
17674THY    HM332326   6.283   8.211   6.547 -0.8638 -0.0391  0.3142
17674THY    CA632327   6.154   8.258   6.273 -0.6912  0.5341 -0.1491
17674THY    HA632328   6.195   8.158   6.257  0.0749  1.3459  0.0185
17675THY      O32329   5.530   6.007   6.116 -0.2458 -0.1806  0.4137
17675THY     HO32330   5.473   5.956   6.055  1.4248 -0.1366 -1.6579
17675THY    CA132331   5.506   5.960   6.237 -0.3454  0.3462  0.4277
17675THY    CA232332   5.582   6.003   6.351  0.3323 -0.2000 -0.8710
17675THY    CP132333   5.697   6.104   6.342  0.0997 -0.8479 -0.8466
17675THY    HP132334   5.699   6.152   6.243  0.8867 -1.5121 -2.1832
17675THY    CP232335   5.825   6.025   6.353  0.3507 -0.4960  1.0938
17675THY    HP232336   5.844   5.966   6.263 -0.2323 -0.4942  0.8926
17675THY    HP332337   5.819   5.944   6.428 -2.7451 -0.1191  1.5334
17675THY    HP432338   5.916   6.081   6.378  2.1884 -0.6294 -1.6149
17675THY    CP332339   5.695   6.208   6.454 -0.0850  0.0156 -1.0945
17675THY    HP532340   5.779   6.279   6.453  0.3473 -0.6973 -1.5964
17675THY    HP632341   5.687   6.165   6.554  0.0626 -0.4991 -2.3736
17675THY    HP732342   5.607   6.268   6.428  0.6430 -0.2412 -0.1080
17675THY    CA332343   5.556   5.936   6.473  0.0626  0.3823  0.1490
17675THY    HA332344   5.611   5.959   6.563 -1.7340  1.6741 -0.4011
17675THY    CA432345   5.461   5.839   6.486  0.4664 -0.6197  0.2730
17675THY    HA432346   5.446   5.787   6.580 -1.7067 -0.6995  0.6745
17675THY    CA532347   5.378   5.807   6.380  0.7716  0.5576 -0.2949
17675THY    CM132348   5.265   5.710   6.383 -0.1444 -0.1607  0.4527
17675THY    HM132349   5.222   5.695   6.483 -0.2699 -0.3411 -0.4874
17675THY    HM232350   5.307   5.611   6.362  0.1599 -0.3815  0.6294
17675THY    HM332351   5.177   5.723   6.318  0.1239 -0.7305 -0.4685
17675THY    CA632352   5.402   5.872   6.254  0.0985  0.1631  0.1764
17675THY    HA632353   5.338   5.855   6.168  0.7144 -0.5324  1.2362
17676THY      O32354   5.438   0.731   5.265  0.2111  0.5138 -0.0203
17676THY     HO32355   5.510   0.687   5.216  0.8548  1.2060  0.2368
17676THY    CA132356   5.482   0.861   5.287  0.2177  0.6442 -0.2343
17676THY    CA232357   5.402   0.956   5.365  0.2229  0.4525  0.0355
17676THY    CP132358   5.280   0.905   5.441  0.1773 -1.3081 -0.0297
17676THY    HP132359   5.240   0.810   5.403  0.7073 -1.5202 -0.1719
17676THY    CP232360   5.158   1.010   5.411 -0.2563 -0.7494  0.2242
17676THY    HP232361   5.167   1.099   5.475  0.9982 -0.0008 -0.4141
17676THY    HP332362   5.066   0.965   5.450  0.5297  1.9750  0.7823
17676THY    HP432363   5.140   1.024   5.304  1.9852 -0.9789  1.8576
17676THY    CP332364   5.297   0.891   5.591 -0.0545 -0.3824 -0.2998
17676THY    HP532365   5.357   0.803   5.615 -0.4558  2.8507  0.1825
17676THY    HP632366   5.203   0.873   5.645  1.2047  1.6784 -1.0092
17676THY    HP732367   5.349   0.975   5.638  1.8235 -1.1279 -0.9920
17676THY    CA332368   5.461   1.078   5.390 -0.2958  0.0920 -0.6916
17676THY    HA332369   5.412   1.146   5.460 -0.2567 -0.0965 -0.4670
17676THY    CA432370   5.587   1.111   5.335 -0.1732 -0.5880 -0.5130
17676THY    HA432371   5.633   1.205   5.363 -0.3899  1.1713 -0.8912
17676THY    CA532372   5.653   1.019   5.253  0.4557  0.0031 -0.5519
17676THY    CM132373   5.795   1.052   5.210  0.2795 -0.2230  0.3643
17676THY    HM132374   5.795   1.160   5.191  0.8269 -0.2481  0.3618
17676THY    HM232375   5.835   0.996   5.125 -1.6872  0.0448 -1.6434
17676THY    HM332376   5.862   1.026   5.293  0.1072 -0.6449 -1.6186
17676THY    CA632377   5.595   0.895   5.224  0.0899 -0.0119 -0.9259
17676THY    HA632378   5.657   0.825   5.167  2.1778 -0.4844  1.1634
17677THY      O32379   5.347   4.858   7.224  0.6845  0.0223  0.0582
17677THY     HO32380   5.430   4.832   7.180 -0.0165 -1.6746  0.5977
17677THY    CA132381   5.315   4.750   7.307 -0.0835  0.3128  0.6282
17677THY    CA232382   5.416   4.664   7.364  0.2295  0.4385  0.3880
17677THY    CP132383   5.566   4.696   7.346  0.1982 -0.4344  0.2218
17677THY    HP132384   5.570   4.739   7.245  0.2575  0.4896  2.4905
17677THY    CP232385   5.668   4.584   7.369  0.0539 -0.6870 -0.1652
17677THY    HP232386   5.632   4.496   7.314 -1.3999  0.2089 -0.1606
17677THY    HP332387   5.678   4.548   7.472  0.6465 -1.5284 -2.6161
17677THY    HP432388   5.770   4.611   7.339  0.9926  1.7782 -0.7154
17677THY    CP332389   5.612   4.800   7.447 -0.0343 -0.2551  0.2903
17677THY    HP532390   5.721   4.812   7.446  0.2008  0.8036 -1.4533
17677THY    HP632391   5.575   4.765   7.545 -0.5378 -0.9159 -1.0949
17677THY    HP732392   5.558   4.890   7.416 -1.8237 -2.1811 -1.3429
17677THY    CA332393   5.376   4.558   7.447 -0.0261  0.5063 -0.5045
17677THY    HA332394   5.447   4.511   7.514  1.5166 -1.3387 -0.9108
17677THY    CA432395   5.241   4.538   7.476 -0.0505  0.0910 -0.3792
17677THY    HA432396   5.207   4.466   7.550  1.6396  1.3591  0.0605
17677THY    CA532397   5.145   4.609   7.418 -0.1445  0.5814 -0.2248
17677THY    CM132398   4.998   4.594   7.443  0.0609 -0.2017 -0.5028
17677THY    HM132399   4.973   4.556   7.543 -1.2432 -0.6157 -0.8112
17677THY    HM232400   4.956   4.526   7.368  2.5375 -1.8649 -0.3205
17677THY    HM332401   4.946   4.690   7.430  0.7218 -1.3465 -0.2840
17677THY    CA632402   5.180   4.714   7.335 -0.4760 -0.3027  0.1943
17677THY    HA632403   5.103   4.777   7.291  0.3375  0.9012  2.1141
17678THY      O32404   3.408   1.357   4.847  0.3088  0.3569 -0.4639
17678THY     HO32405   3.380   1.290   4.783 -0.7861  1.7667 -1.3917
17678THY    CA132406   3.512   1.425   4.789  0.0757 -0.1671  0.4092
17678THY    CA232407   3.598   1.506   4.869  0.5448  0.5611 -0.1810
17678THY    CP132408   3.554   1.533   5.009  0.4819  0.3124  0.3401
17678THY    HP132409   3.476   1.462   5.038 -1.4503  0.8593  2.5573
17678THY    CP232410   3.471   1.669   5.000 -0.0264 -0.1763 -0.7005
17678THY    HP232411   3.388   1.656   4.930  0.6009 -1.1654  0.4287
17678THY    HP332412   3.538   1.749   4.968  0.1601 -2.9774 -1.8604
17678THY    HP432413   3.433   1.686   5.101  2.0625  0.7566 -1.3392
17678THY    CP332414   3.668   1.540   5.110  0.2883 -0.3937 -0.3679
17678THY    HP532415   3.730   1.629   5.092  1.1440 -1.1043 -1.0968
17678THY    HP632416   3.739   1.460   5.088  1.7256 -2.7753  1.4038
17678THY    HP732417   3.632   1.540   5.213 -0.0954 -0.5282 -0.8581
17678THY    CA332418   3.713   1.567   4.811 -0.6472 -0.2876  0.0398
17678THY    HA332419   3.773   1.634   4.872  0.1516 -1.5353  0.4837
17678THY    CA432420   3.725   1.552   4.674  0.8564 -0.3037  0.4954
17678THY    HA432421   3.812   1.604   4.634  0.6845  1.0204  1.8637
17678THY    CA532422   3.653   1.456   4.598  0.3975  0.0766  0.5019
17678THY    CM132423   3.707   1.406   4.469 -0.4643  0.1890  0.8006
17678THY    HM132424   3.795   1.466   4.441  1.0206  2.1130 -0.3570
17678THY    HM232425   3.635   1.389   4.389  1.0070 -0.4103 -4.4551
17678THY    HM332426   3.754   1.307   4.477  1.3755 -1.3142  1.4976
17678THY    CA632427   3.544   1.396   4.661  0.1032  0.5045 -0.5304
17678THY    HA632428   3.490   1.321   4.604  1.0723 -1.3677  0.1207
17679THY      O32429   3.656   8.564   5.902  0.6002 -0.5961  0.2166
17679THY     HO32430   3.647   8.602   5.991 -0.7782 -1.1208  1.1851
17679THY    CA132431   3.529   8.541   5.863  1.1439 -0.1340 -0.0477
17679THY    CA232432   3.494   8.520   5.722  0.1346 -1.1293 -0.3325
17679THY    CP132433   3.595   8.558   5.622 -0.2927 -0.4887  0.6351
17679THY    HP132434   3.692   8.559   5.671 -1.5161  2.1648 -0.4787
17679THY    CP232435   3.565   8.691   5.562 -0.7418  0.8690 -0.3992
17679THY    HP232436   3.463   8.711   5.527 -0.9153  0.5609 -1.7319
17679THY    HP332437   3.635   8.721   5.483 -1.5610  0.4724  0.5246
17679THY    HP432438   3.574   8.764   5.643 -0.5016 -1.2475  2.0462
17679THY    CP332439   3.607   8.452   5.505 -0.0046 -0.2229 -0.3148
17679THY    HP532440   3.700   8.466   5.448  0.0796  0.3291  1.7950
17679THY    HP632441   3.526   8.459   5.432 -2.3028  2.0946 -1.1049
17679THY    HP732442   3.613   8.352   5.548  1.7043  2.2877  0.7421
17679THY    CA332443   3.365   8.475   5.701  0.5191 -0.3307 -0.8658
17679THY    HA332444   3.320   8.473   5.602 -1.1763  0.3719  0.0622
17679THY    CA432445   3.284   8.449   5.811 -0.3765 -0.9180 -0.5433
17679THY    HA432446   3.182   8.428   5.781  0.0196 -1.7705 -1.3007
17679THY    CA532447   3.324   8.470   5.945 -0.4554 -0.8094  0.0648
17679THY    CM132448   3.223   8.457   6.054  0.1033  0.1153 -0.3930
17679THY    HM132449   3.167   8.551   6.057  0.4984  2.0660 -0.1814
17679THY    HM232450   3.265   8.444   6.155  0.1623  0.2088  0.4932
17679THY    HM332451   3.158   8.371   6.034  0.3052 -2.6137  0.0068
17679THY    CA632452   3.443   8.521   5.974  0.6142 -0.1439  0.3069
17679THY    HA632453   3.465   8.541   6.079 -1.8158  0.5070 -0.0548
17680THY      O32454   6.392   7.491   2.392 -0.1616 -0.2606  0.8182
17680THY     HO32455   6.464   7.538   2.438 -0.9176  2.7253 -0.7326
17680THY    CA132456   6.449   7.385   2.331 -0.7335 -0.1879 -0.3056
17680THY    CA232457   6.411   7.331   2.209  0.0059  0.3522  0.0708
17680THY    CP132458   6.309   7.394   2.118  0.3650 -0.0966 -0.2093
17680THY    HP132459   6.256   7.476   2.169 -0.6820  0.8655 -1.4505
17680THY    CP232460   6.198   7.304   2.061 -0.3976  0.2002 -0.6415
17680THY    HP232461   6.234   7.241   1.979  1.0821  0.4618 -0.1659
17680THY    HP332462   6.123   7.375   2.025 -0.1865  0.6378 -0.1902
17680THY    HP432463   6.153   7.252   2.146 -0.3441  0.9197  0.4601
17680THY    CP332464   6.392   7.458   2.002  0.1402 -0.2219  0.6475
17680THY    HP532465   6.458   7.387   1.951  1.5404  0.4910  1.3808
17680THY    HP632466   6.453   7.532   2.055  0.9164 -0.0472 -0.1057
17680THY    HP732467   6.318   7.503   1.935  0.6024  0.2058  2.1062
17680THY    CA332468   6.477   7.216   2.156  0.4200 -0.0456 -0.4471
17680THY    HA332469   6.447   7.174   2.060  3.5285 -2.1461  1.6521
17680THY    CA432470   6.587   7.163   2.223 -0.1632  0.4345 -0.1683
17680THY    HA432471   6.639   7.074   2.188  0.1756  1.8659 -0.5514
17680THY    CA532472   6.628   7.217   2.350  0.4307 -0.0560  0.3398
17680THY    CM132473   6.742   7.151   2.411  0.1515 -0.3766 -0.5839
17680THY    HM132474   6.740   7.041   2.404 -0.6139 -1.1881 -0.5268
17680THY    HM232475   6.731   7.180   2.516  2.3683  0.0875 -1.1963
17680THY    HM332476   6.833   7.197   2.370  0.7426  1.3412 -0.1550
17680THY    CA632477   6.555   7.328   2.405  0.7949 -0.2405  0.3049
17680THY    HA632478   6.587   7.367   2.501  2.2363 -0.5227 -0.1290
17681THY      O32479   2.185   8.256   2.146 -0.1703 -0.5727 -0.1949
17681THY     HO32480   2.232   8.173   2.163  2.6930 -1.1547  1.1386
17681THY    CA132481   2.167   8.265   2.013  0.5063 -0.3519  1.3969
17681THY    CA232482   2.115   8.150   1.946  0.2899 -1.1099 -0.5945
17681THY    CP132483   2.033   8.049   2.031  0.3553 -0.8456  0.6045
17681THY    HP132484   2.017   8.096   2.128 -1.1706 -0.7154 -0.1106
17681THY    CP232485   2.109   7.919   2.060  0.1679  0.6126 -0.5697
17681THY    HP232486   2.119   7.862   1.966 -0.1408 -1.2154  2.1676
17681THY    HP332487   2.056   7.855   2.131  2.3897  2.1012 -0.8705
17681THY    HP432488   2.209   7.935   2.101 -1.3458  4.4628 -0.0132
17681THY    CP332489   1.897   8.006   1.968 -0.0644 -0.2823  0.4406
17681THY    HP532490   1.843   7.944   2.040 -0.5471 -0.3641  0.7619
17681THY    HP632491   1.921   7.938   1.885 -0.1677  2.5676 -3.3875
17681THY    HP732492   1.834   8.093   1.946 -1.3442  2.9086  0.4294
17681THY    CA332493   2.118   8.150   1.808 -0.7305  0.4000 -0.0598
17681THY    HA332494   2.086   8.066   1.746  1.0368  1.9870 -2.0295
17681THY    CA432495   2.166   8.260   1.736  0.0831  0.2919  0.9209
17681THY    HA432496   2.153   8.251   1.629  1.1055  0.3625 -3.1569
17681THY    CA532497   2.210   8.374   1.806 -0.2286 -0.2127  0.9152
17681THY    CM132498   2.260   8.493   1.730  0.0006 -0.2352 -0.6933
17681THY    HM132499   2.188   8.576   1.743  2.1804  2.1801  0.9573
17681THY    HM232500   2.272   8.468   1.624 -1.4371 -0.2921 -1.2368
17681THY    HM332501   2.358   8.525   1.765 -0.1471  0.0049 -0.5050
17681THY    CA632502   2.212   8.368   1.946  0.9181  0.1398 -0.5311
17681THY    HA632503   2.257   8.453   1.997  0.8411  1.1864 -1.0992
17682THY      O32504   1.979   0.855   3.902 -0.2206  0.0205  0.1222
17682THY     HO32505   1.905   0.814   3.853  0.6725  0.1437 -1.7420
17682THY    CA132506   2.088   0.853   3.815  0.8754 -0.4008 -0.7426
17682THY    CA232507   2.214   0.916   3.841 -0.1737 -0.0261  0.0800
17682THY    CP132508   2.224   1.007   3.967 -0.5600  0.6055 -0.6703
17682THY    HP132509   2.130   1.025   4.020 -0.9179  0.0327 -0.8335
17682THY    CP232510   2.287   1.145   3.933  0.1009  0.3780  0.0519
17682THY    HP232511   2.380   1.130   3.877 -1.4675 -2.5384  0.4905
17682THY    HP332512   2.316   1.202   4.023 -2.2039  0.6696  0.8573
17682THY    HP432513   2.221   1.200   3.865 -1.0902  1.4720  0.0394
17682THY    CP332514   2.321   0.943   4.068 -0.5476  0.2931  0.4799
17682THY    HP532515   2.292   0.840   4.091  0.8289  0.3520  0.0850
17682THY    HP632516   2.317   1.007   4.157  0.9178  0.1591  0.8009
17682THY    HP732517   2.426   0.944   4.036 -0.5092  0.2903 -1.0790
17682THY    CA332518   2.321   0.889   3.751 -0.0359  0.0633  0.1386
17682THY    HA332519   2.418   0.927   3.779  0.3645 -0.9644 -0.0959
17682THY    CA432520   2.297   0.801   3.642 -0.0697  0.3861 -0.2618
17682THY    HA432521   2.389   0.766   3.596  0.6615  2.6430 -1.4935
17682THY    CA532522   2.178   0.728   3.628  0.3123 -0.4189 -0.5716
17682THY    CM132523   2.174   0.613   3.545  0.2699  0.2929  0.4345
17682THY    HM132524   2.212   0.633   3.444 -0.8828  0.1601  2.1955
17682THY    HM232525   2.080   0.559   3.533  0.2062 -0.4611  0.7014
17682THY    HM332526   2.247   0.543   3.586  3.6169  1.5187  4.2490
17682THY    CA632527   2.069   0.760   3.715 -0.0539  0.6629  0.0884
17682THY    HA632528   1.980   0.698   3.713 -0.1207 -0.3740  0.1945
17683THY      O32529   1.668   7.388   5.782 -0.2314 -0.3026 -0.2045
17683THY     HO32530   1.632   7.316   5.836 -2.9208  0.6016  1.6748
17683THY    CA132531   1.558   7.460   5.740 -0.8092 -0.1830  0.4104
17683THY    CA232532   1.578   7.555   5.646  0.2015 -0.3858 -0.2391
17683THY    CP132533   1.710   7.592   5.585  0.0292  0.2985  0.2308
17683THY    HP132534   1.782   7.588   5.668  1.6549 -1.1141 -0.7019
17683THY    CP232535   1.723   7.741   5.531  0.3766 -0.5535  0.7391
17683THY    HP232536   1.652   7.767   5.453 -2.6201  1.8206  0.2498
17683THY    HP332537   1.825   7.764   5.497  0.1386 -0.3133  2.2814
17683THY    HP432538   1.711   7.821   5.605 -0.2060  0.2271 -0.0531
17683THY    CP332539   1.745   7.487   5.478 -0.2483  0.2163  0.6744
17683THY    HP532540   1.790   7.399   5.525  0.5020 -2.2842 -0.3774
17683THY    HP632541   1.821   7.533   5.413  0.2986  0.9178  0.7809
17683THY    HP732542   1.659   7.457   5.418  2.6640 -3.0849 -1.9101
17683THY    CA332543   1.461   7.620   5.594  0.3836  0.1554  0.1352
17683THY    HA332544   1.468   7.687   5.509  0.9463 -0.0821 -0.2120
17683THY    CA432545   1.336   7.600   5.655 -0.5443 -0.7946  0.1969
17683THY    HA432546   1.242   7.647   5.628 -0.2440 -1.5076  0.4063
17683THY    CA532547   1.323   7.518   5.767 -0.0717 -0.0162 -0.0069
17683THY    CM132548   1.189   7.504   5.823  0.3876  0.1994 -0.2059
17683THY    HM132549   1.192   7.455   5.920  0.6419  0.9189  1.1886
17683THY    HM232550   1.124   7.445   5.757  1.0145  1.1404 -1.9947
17683THY    HM332551   1.143   7.603   5.835  0.1967  1.5946 -0.4514
17683THY    CA632552   1.433   7.446   5.801 -0.5655 -0.2302 -0.3949
17683THY    HA632553   1.424   7.364   5.872  1.6568  0.5037 -0.0788
17684THY      O32554   5.413   6.330   2.823  0.5590  0.0785 -0.6004
17684THY     HO32555   5.370   6.382   2.753  1.1852  0.8247  0.9886
17684THY    CA132556   5.445   6.205   2.779 -1.2402  0.8865 -0.4815
17684THY    CA232557   5.558   6.138   2.838 -0.0550 -0.0389  0.1633
17684THY    CP132558   5.640   6.200   2.955  0.0489 -0.1063 -0.9412
17684THY    HP132559   5.582   6.278   3.007  0.6128 -0.5224 -0.2279
17684THY    CP232560   5.773   6.262   2.905  1.2684 -0.4016  0.9095
17684THY    HP232561   5.854   6.190   2.890  0.7090  0.1887  0.1514
17684THY    HP332562   5.811   6.342   2.970  1.2133  0.1563  0.4800
17684THY    HP432563   5.763   6.309   2.806  3.5815 -0.4963  1.3166
17684THY    CP332564   5.667   6.101   3.067 -0.5951  0.2369  0.0096
17684THY    HP532565   5.761   6.047   3.057  0.7321 -0.1844  2.2845
17684THY    HP632566   5.588   6.026   3.081  1.3390 -0.8583 -2.3372
17684THY    HP732567   5.674   6.149   3.166 -1.6414 -0.7296  2.3559
17684THY    CA332568   5.603   6.013   2.788 -0.2651 -0.2545 -0.1161
17684THY    HA332569   5.680   5.949   2.829 -1.0608  0.4488 -0.6409
17684THY    CA432570   5.542   5.977   2.669 -0.9235 -0.6267 -0.2211
17684THY    HA432571   5.577   5.881   2.632  0.6828 -0.1108  0.1347
17684THY    CA532572   5.448   6.054   2.603  0.2043 -0.1775  0.2097
17684THY    CM132573   5.402   6.009   2.470 -0.0619  0.3544 -0.4134
17684THY    HM132574   5.312   5.948   2.478 -0.0154 -1.1491 -0.7189
17684THY    HM232575   5.479   5.952   2.417 -0.8005 -3.3771  1.7549
17684THY    HM332576   5.381   6.094   2.404 -1.3577  0.4534 -0.6446
17684THY    CA632577   5.398   6.168   2.655  0.7279 -0.1019  0.3390
17684THY    HA632578   5.328   6.230   2.600  2.0517 -0.2032  1.8136
17685THY      O32579   0.354   4.979   2.382 -0.0132  0.2672  0.3702
17685THY     HO32580   0.406   5.043   2.434  1.8200  1.0169 -1.6125
17685THY    CA132581   0.426   4.918   2.281 -0.1951  0.4297 -0.3611
17685THY    CA232582   0.368   4.879   2.161  0.7162 -0.6208  0.4862
17685THY    CP132583   0.217   4.911   2.138 -0.1391  0.1266  0.1912
17685THY    HP132584   0.182   5.003   2.187 -1.6925 -1.2401  0.3852
17685THY    CP232585   0.125   4.814   2.199  0.4088 -0.2563  1.2239
17685THY    HP232586   0.148   4.783   2.302 -0.4142  0.2315  2.1790
17685THY    HP332587   0.111   4.728   2.132 -1.1286  0.5364  0.8097
17685THY    HP432588   0.025   4.856   2.214 -0.5911  0.6994 -1.3110
17685THY    CP332589   0.186   4.935   1.993  0.3806 -0.8349  0.4417
17685THY    HP532590   0.176   4.840   1.939  1.1303  0.6608 -0.5236
17685THY    HP632591   0.260   5.000   1.946 -0.3893 -0.5524  1.5456
17685THY    HP732592   0.097   4.997   1.977  1.3764 -1.1601  1.8187
17685THY    CA332593   0.445   4.808   2.069 -0.2823  0.1809  0.9238
17685THY    HA332594   0.403   4.764   1.979 -2.6631  1.3864  0.5574
17685THY    CA432595   0.580   4.779   2.098  0.0510 -0.2546  0.0097
17685THY    HA432596   0.641   4.719   2.031 -0.6232  0.6696 -1.7808
17685THY    CA532597   0.638   4.822   2.217  0.8903  0.3326 -0.3834
17685THY    CM132598   0.781   4.785   2.245  0.3880 -0.5336 -0.2771
17685THY    HM132599   0.792   4.678   2.221 -1.3634  0.1406 -0.6534
17685THY    HM232600   0.808   4.785   2.351  2.1651 -0.9539 -0.8525
17685THY    HM332601   0.854   4.841   2.187 -1.0375 -0.7959  1.3700
17685THY    CA632602   0.563   4.895   2.304 -0.3002 -0.0035  0.0743
17685THY    HA632603   0.617   4.930   2.391  0.1213 -0.7004  1.2124
17686THY      O32604   2.734   8.975   3.004  0.1309 -0.1189  0.3130
17686THY     HO32605   2.664   9.031   3.041 -1.2096 -0.0437 -1.3301
17686THY    CA132606   2.737   8.868   3.077  0.7447 -0.6079  0.3310
17686THY    CA232607   2.764   8.736   3.026  0.1510 -1.1207  0.2086
17686THY    CP132608   2.796   8.713   2.882 -0.0087  0.3474 -0.0666
17686THY    HP132609   2.754   8.797   2.825  0.4767  0.0221 -0.0391
17686THY    CP232610   2.734   8.587   2.831 -0.0611 -0.0995  0.4911
17686THY    HP232611   2.789   8.499   2.865 -0.6085 -1.9115 -0.6148
17686THY    HP332612   2.751   8.593   2.723  1.6686  0.1029 -0.1663
17686THY    HP432613   2.627   8.594   2.855 -0.1213  0.0063 -0.5669
17686THY    CP332614   2.946   8.711   2.864 -0.1595 -0.6318  1.0939
17686THY    HP532615   2.984   8.802   2.912  0.1135  2.0845 -0.3500
17686THY    HP632616   2.968   8.723   2.757 -0.7632 -0.9688 -0.4928
17686THY    HP732617   3.009   8.626   2.892 -2.9657 -0.7017 -1.1579
17686THY    CA332618   2.770   8.630   3.118 -0.8051  0.2215 -0.5101
17686THY    HA332619   2.790   8.529   3.084 -0.7143 -0.9586 -0.1094
17686THY    CA432620   2.776   8.664   3.252 -0.1470 -0.2962  0.2876
17686THY    HA432621   2.805   8.587   3.324  0.3557 -1.8099 -0.9828
17686THY    CA532622   2.740   8.789   3.303 -0.0990 -0.7130 -0.8745
17686THY    CM132623   2.730   8.816   3.454  0.2947 -0.5454  1.0454
17686THY    HM132624   2.828   8.826   3.503  0.6820 -1.0090 -0.1889
17686THY    HM232625   2.667   8.739   3.500 -1.6710 -0.0809  2.8522
17686THY    HM332626   2.687   8.916   3.465 -0.6461  0.6921  0.5212
17686THY    CA632627   2.707   8.884   3.211  0.0696  0.6289  0.4393
17686THY    HA632628   2.667   8.978   3.248 -1.9759 -1.2502  0.4137
17687THY      O32629   7.557   1.937   4.452 -0.0972  0.7467 -0.2282
17687THY     HO32630   7.497   1.927   4.528  1.0877  1.5531 -1.6574
17687THY    CA132631   7.669   1.871   4.477  0.1095 -0.4177 -0.0605
17687THY    CA232632   7.799   1.916   4.451 -0.1850  0.3249  0.4280
17687THY    CP132633   7.815   2.040   4.364  0.6778 -0.0124 -0.2236
17687THY    HP132634   7.739   2.040   4.286  0.1852  0.4319  1.1179
17687THY    CP232635   7.936   2.037   4.284  0.5893 -0.4909 -0.4319
17687THY    HP232636   8.022   2.050   4.351  1.5365 -1.7983  0.2212
17687THY    HP332637   7.928   2.125   4.220 -0.4264  2.4689  1.7962
17687THY    HP432638   7.941   1.946   4.223  1.2266 -2.2847  0.7600
17687THY    CP332639   7.807   2.163   4.451 -0.1173  0.1161 -0.4329
17687THY    HP532640   7.884   2.163   4.529 -1.1221  1.1379  0.3908
17687THY    HP632641   7.706   2.158   4.495 -1.2142 -2.0378  1.0716
17687THY    HP732642   7.806   2.249   4.384  0.4414 -3.1972 -2.8071
17687THY    CA332643   7.907   1.840   4.505  0.2309 -0.6009 -0.5236
17687THY    HA332644   8.009   1.870   4.480  0.4622  2.1151  1.4350
17687THY    CA432645   7.883   1.730   4.588  0.1306 -0.4539  0.4535
17687THY    HA432646   7.968   1.674   4.625 -0.6727  1.8594  0.6633
17687THY    CA532647   7.752   1.689   4.619  0.0771 -0.0291 -0.1291
17687THY    CM132648   7.730   1.577   4.707  0.4452 -1.3146  0.9573
17687THY    HM132649   7.814   1.507   4.704 -0.8527  1.0121 -0.8604
17687THY    HM232650   7.648   1.511   4.675  1.2166 -2.0036  0.3069
17687THY    HM332651   7.707   1.603   4.810  0.4683 -1.1513  0.3568
17687THY    CA632652   7.648   1.757   4.554 -0.2837 -0.3226 -0.0760
17687THY    HA632653   7.551   1.716   4.577  0.6800  2.3276 -1.1389
17688THY      O32654   4.280   1.710   7.583 -0.2127 -0.3278 -0.8455
17688THY     HO32655   4.353   1.763   7.621 -1.0422  1.7025 -1.0438
17688THY    CA132656   4.306   1.730   7.452 -0.2292  0.0794 -0.2007
17688THY    CA232657   4.215   1.779   7.361 -0.0195 -0.4610 -0.4482
17688THY    CP132658   4.079   1.822   7.405  0.5408  0.6140  0.5942
17688THY    HP132659   4.039   1.751   7.478 -1.7650 -0.3188  0.8800
17688THY    CP232660   3.965   1.831   7.296  0.8522  0.4546  0.2046
17688THY    HP232661   3.972   1.903   7.214 -3.2686 -1.1893 -1.0028
17688THY    HP332662   3.872   1.840   7.353 -0.3038 -1.5854  1.9939
17688THY    HP432663   3.953   1.732   7.251  1.1232 -1.0327  0.8294
17688THY    CP332664   4.085   1.948   7.496  0.3364  0.0520 -0.0419
17688THY    HP532665   3.986   1.968   7.538  1.1912  1.9184  0.5775
17688THY    HP632666   4.125   2.023   7.427 -0.6472 -2.0563 -1.3731
17688THY    HP732667   4.154   1.935   7.581 -0.8030  0.8576 -1.0663
17688THY    CA332668   4.260   1.811   7.238 -0.0728  0.0223 -0.6650
17688THY    HA332669   4.188   1.856   7.171  0.2050  1.7083  2.4994
17688THY    CA432670   4.395   1.797   7.201  0.2226  0.5050  0.6415
17688THY    HA432671   4.436   1.830   7.106  1.0100  0.7450  0.3834
17688THY    CA532672   4.483   1.728   7.287  0.5075  0.1309 -0.6497
17688THY    CM132673   4.630   1.700   7.252  0.0149 -0.3051  0.5549
17688THY    HM132674   4.637   1.705   7.143 -1.5604 -0.5260 -1.0373
17688THY    HM232675   4.652   1.596   7.280 -2.9254 -3.6132 -1.1777
17688THY    HM332676   4.702   1.762   7.307  0.7315  0.1131 -0.6082
17688THY    CA632677   4.436   1.695   7.418  0.5951 -0.3735 -1.0558
17688THY    HA632678   4.507   1.657   7.491  2.6777 -1.4535  0.5492
17689THY      O32679   1.498   7.264   3.783  0.3421  0.4977 -0.3782
17689THY     HO32680   1.435   7.270   3.710  1.7037 -0.5720  2.3282
17689THY    CA132681   1.492   7.391   3.838  0.0811 -0.1398 -0.2431
17689THY    CA232682   1.535   7.423   3.970 -0.6890  0.1649 -0.6829
17689THY    CP132683   1.592   7.313   4.051  0.0431  0.5795 -0.1691
17689THY    HP132684   1.548   7.222   4.008 -1.0886 -2.2673  1.5795
17689THY    CP232685   1.542   7.314   4.192 -0.1739  0.2399 -0.3367
17689THY    HP232686   1.433   7.324   4.185  0.1122 -1.4694  3.0871
17689THY    HP332687   1.584   7.402   4.242  0.3645 -2.4342  1.0264
17689THY    HP432688   1.568   7.222   4.245  1.6681  0.1744  0.1051
17689THY    CP332689   1.743   7.315   4.054  0.0463  0.2675 -0.8180
17689THY    HP532690   1.773   7.329   3.950 -0.2214  0.2266 -0.5174
17689THY    HP632691   1.793   7.231   4.103 -0.5941 -0.2773 -1.5320
17689THY    HP732692   1.779   7.407   4.102  0.5842  0.4101 -1.1040
17689THY    CA332693   1.553   7.559   4.003  0.4627  0.1218  0.1754
17689THY    HA332694   1.599   7.591   4.096 -0.8287 -0.1629  3.2008
17689THY    CA432695   1.490   7.660   3.926 -0.5018  0.0200 -0.3370
17689THY    HA432696   1.503   7.763   3.958 -1.0210  1.7683 -0.7755
17689THY    CA532697   1.433   7.620   3.799  0.4943  0.4384 -0.6879
17689THY    CM132698   1.381   7.740   3.715  0.0934  0.1459  0.1984
17689THY    HM132699   1.325   7.708   3.626 -1.5930  0.7794  1.2612
17689THY    HM232700   1.458   7.804   3.672 -0.3166  0.0912  0.6606
17689THY    HM332701   1.318   7.808   3.774 -0.9426  0.1012 -0.6822
17689THY    CA632702   1.428   7.488   3.758  0.0979  0.2553 -0.7184
17689THY    HA632703   1.387   7.461   3.661 -0.3383  0.0471  0.6267
17690THY      O32704   7.319   7.506   4.742 -0.0269  0.3649 -0.0321
17690THY     HO32705   7.355   7.418   4.763 -2.9450  0.6737 -1.2637
17690THY    CA132706   7.423   7.588   4.714 -0.5027  0.1739 -0.1111
17690THY    CA232707   7.412   7.718   4.677 -0.5114 -0.1121 -1.1109
17690THY    CP132708   7.272   7.793   4.672  0.0657 -0.0744  0.1584
17690THY    HP132709   7.199   7.732   4.728  1.5174  0.9585 -0.6970
17690THY    CP232710   7.227   7.823   4.533 -0.9622  0.1175 -0.1460
17690THY    HP232711   7.256   7.744   4.463 -1.1729 -0.3988  0.2323
17690THY    HP332712   7.270   7.916   4.493  2.8916  0.1357 -1.7525
17690THY    HP432713   7.122   7.837   4.505 -0.3337 -2.2924  0.1554
17690THY    CP332714   7.276   7.917   4.767 -0.0421  0.2777  0.3492
17690THY    HP532715   7.320   7.879   4.859  1.4120 -0.6505 -0.2864
17690THY    HP632716   7.177   7.960   4.785 -0.6553  0.4122 -1.0636
17690THY    HP732717   7.334   8.000   4.723 -1.0917 -0.3628  0.7629
17690THY    CA332718   7.532   7.785   4.643 -0.2040 -0.2322 -0.1221
17690THY    HA332719   7.530   7.892   4.626 -1.5898  1.7586  0.2455
17690THY    CA432720   7.649   7.725   4.629 -0.9898  0.2532  0.2628
17690THY    HA432721   7.738   7.777   4.594 -0.4667  0.2015 -0.6254
17690THY    CA532722   7.657   7.585   4.658  0.4642 -0.5557 -0.2350
17690THY    CM132723   7.782   7.507   4.629  0.2722 -0.0102 -0.3034
17690THY    HM132724   7.863   7.576   4.605 -1.1530 -0.6184  1.2218
17690THY    HM232725   7.779   7.444   4.539  2.5104 -0.7091  0.5033
17690THY    HM332726   7.812   7.448   4.717  0.9176  0.5725  0.8691
17690THY    CA632727   7.547   7.524   4.712  0.1210  0.3215  0.5671
17690THY    HA632728   7.552   7.422   4.748 -1.9231 -0.9978 -0.0630
17691THY      O32729   6.761   4.622   6.250 -0.2588  0.7213 -0.2617
17691THY     HO32730   6.734   4.657   6.163 -1.8950  1.3675  0.1793
17691THY    CA132731   6.812   4.499   6.221  0.3088  0.6362 -0.1620
17691THY    CA232732   6.870   4.427   6.323 -0.8146 -0.0762 -0.0834
17691THY    CP132733   6.868   4.469   6.465 -0.0701 -0.9672  0.6418
17691THY    HP132734   6.800   4.553   6.478 -2.2162  1.4960 -1.3179
17691THY    CP232735   7.002   4.528   6.500  0.1234 -0.1558 -0.5855
17691THY    HP232736   7.010   4.563   6.603 -2.2051 -0.3210  0.6467
17691THY    HP332737   7.022   4.623   6.449  1.3279 -0.8418 -1.1873
17691THY    HP432738   7.087   4.458   6.492 -2.5673  0.2489 -4.1979
17691THY    CP332739   6.812   4.365   6.571 -0.3852  0.0113  0.3883
17691THY    HP532740   6.812   4.424   6.663  1.8958  0.5469 -0.3625
17691THY    HP632741   6.860   4.269   6.591 -0.5869  1.2820  0.5459
17691THY    HP732742   6.706   4.344   6.548 -0.5879  1.5152 -0.3620
17691THY    CA332743   6.921   4.298   6.290 -0.1469 -0.1381  0.3925
17691THY    HA332744   6.957   4.225   6.362 -0.6976 -0.6001 -0.3460
17691THY    CA432745   6.909   4.250   6.158 -0.0272  0.2298 -0.3167
17691THY    HA432746   6.946   4.150   6.136  1.1390  1.4097 -0.1832
17691THY    CA532747   6.848   4.325   6.060  0.1147 -0.2582  0.2032
17691THY    CM132748   6.850   4.265   5.921  0.4041  0.2237 -0.1424
17691THY    HM132749   6.944   4.229   5.876 -0.4273 -0.0498 -2.1183
17691THY    HM232750   6.816   4.342   5.850 -2.4916 -2.0738 -3.2152
17691THY    HM332751   6.779   4.182   5.913 -1.1876  0.0216  1.1992
17691THY    CA632752   6.793   4.448   6.091 -0.7475 -0.1979 -0.7936
17691THY    HA632753   6.748   4.508   6.012  1.8265 -0.6393  0.6805
17692THY      O32754   5.832   3.260   2.018 -0.0189 -0.8393 -0.2541
17692THY     HO32755   5.924   3.234   2.000 -0.0016  0.1373 -0.9085
17692THY    CA132756   5.820   3.390   1.979 -0.2290  0.8585  0.2037
17692THY    CA232757   5.701   3.466   1.995  0.4512  1.0197  0.8777
17692THY    CP132758   5.565   3.403   2.055 -0.0365 -0.2342 -0.1421
17692THY    HP132759   5.563   3.294   2.052  2.6153 -1.0752 -0.2322
17692THY    CP232760   5.437   3.445   1.971  0.2247  0.4698 -0.5191
17692THY    HP232761   5.456   3.403   1.872  3.7613  0.2228  1.3529
17692THY    HP332762   5.429   3.553   1.954 -0.5287  0.0111 -0.6381
17692THY    HP432763   5.341   3.416   2.016  0.8772  2.5469  0.3526
17692THY    CP332764   5.544   3.435   2.202 -0.6916  0.0220  0.3619
17692THY    HP532765   5.438   3.428   2.230 -0.8192 -0.5345 -0.0042
17692THY    HP632766   5.580   3.534   2.231  1.7530  1.5947 -0.8827
17692THY    HP732767   5.599   3.368   2.269  2.8683 -0.2682  2.7366
17692THY    CA332768   5.707   3.603   1.986  0.0365  0.4159 -0.1492
17692THY    HA332769   5.618   3.664   1.994 -0.1523 -0.5731 -0.2938
17692THY    CA432770   5.836   3.661   1.967  0.0656  0.0447 -0.5947
17692THY    HA432771   5.838   3.768   1.987 -4.8829  0.9909 -0.4027
17692THY    CA532772   5.948   3.581   1.945 -0.5519  0.5147 -0.0443
17692THY    CM132773   6.076   3.655   1.932 -0.0507  0.2350  0.3690
17692THY    HM132774   6.074   3.704   1.833  3.2860  0.2526  0.7431
17692THY    HM232775   6.166   3.594   1.942 -1.4503  0.1681 -1.7929
17692THY    HM332776   6.086   3.726   2.015  0.2730  0.5479 -0.0412
17692THY    CA632777   5.938   3.443   1.943  0.7231  0.1450  0.2262
17692THY    HA632778   6.024   3.382   1.920  0.7587 -0.2778  0.4322
17693THY      O32779   9.180   4.778   3.202  0.3029 -0.5936 -0.3041
17693THY     HO32780   9.222   4.851   3.153 -3.3446 -0.5509  2.1158
17693THY    CA132781   9.167   4.677   3.112 -0.5000 -0.1069  0.3996
17693THY    CA232782   9.080   4.673   3.000 -0.4031  0.3358  0.1488
17693THY    CP132783   8.999   4.796   2.963 -0.3115 -0.5676 -0.0640
17693THY    HP132784   9.015   4.875   3.037  1.8083 -0.0575 -0.8902
17693THY    CP232785   8.851   4.747   2.950  0.3033  0.1151  0.0410
17693THY    HP232786   8.840   4.671   3.028  1.6229  1.1103  0.8353
17693THY    HP332787   8.825   4.704   2.852 -1.4031 -0.2024  1.6568
17693THY    HP432788   8.780   4.830   2.963 -1.1523 -0.0346 -1.1459
17693THY    CP332789   9.057   4.861   2.828  0.8362 -0.0534  0.6184
17693THY    HP532790   8.994   4.947   2.805 -0.5723 -0.8371 -0.5839
17693THY    HP632791   9.048   4.790   2.745 -2.6483  2.1743 -1.8562
17693THY    HP732792   9.161   4.897   2.838  0.2957 -0.7334  2.4941
17693THY    CA332793   9.081   4.553   2.917  0.2162  0.0939 -0.0545
17693THY    HA332794   9.019   4.540   2.829  0.9455 -0.5786  0.8972
17693THY    CA432795   9.173   4.450   2.948  0.1691  0.3872  0.2264
17693THY    HA432796   9.179   4.355   2.896 -1.8306  0.6859 -0.0987
17693THY    CA532797   9.262   4.457   3.060  1.0775  0.4363  0.2829
17693THY    CM132798   9.356   4.345   3.097 -0.1322  0.5857  0.0911
17693THY    HM132799   9.355   4.317   3.203 -1.4207  0.7486  0.6902
17693THY    HM232800   9.456   4.389   3.086 -0.5662  1.2029  1.2632
17693THY    HM332801   9.344   4.271   3.017 -0.2462 -3.1206  3.7059
17693THY    CA632802   9.261   4.576   3.132 -0.5865 -0.5026 -0.6982
17693THY    HA632803   9.341   4.593   3.204 -1.7155  0.2210  2.3106
17694THY      O32804   8.714   4.194   3.800 -0.2137  0.2294  0.1385
17694THY     HO32805   8.664   4.118   3.765  1.2010 -1.2733 -0.1637
17694THY    CA132806   8.684   4.200   3.934 -0.3124  0.1436  0.4804
17694THY    CA232807   8.714   4.303   4.017  0.6947 -0.3491 -0.0954
17694THY    CP132808   8.819   4.413   3.974 -0.2114 -0.4772 -0.5478
17694THY    HP132809   8.805   4.434   3.867 -0.3347 -0.7660 -1.9903
17694THY    CP232810   8.957   4.354   3.974 -0.2451 -0.0506 -0.1599
17694THY    HP232811   8.996   4.315   4.068  2.2922 -0.5693  0.9317
17694THY    HP332812   9.014   4.442   3.943 -0.9050  2.2388  1.1637
17694THY    HP432813   8.958   4.287   3.887 -4.8708 -0.7832  0.3500
17694THY    CP332814   8.824   4.541   4.049  0.5720  0.0272 -0.2186
17694THY    HP532815   8.904   4.545   4.124 -0.2794  0.9055  1.2655
17694THY    HP632816   8.724   4.574   4.080  1.1058 -0.1253  1.6451
17694THY    HP732817   8.852   4.621   3.979 -2.4776 -0.5304  0.4579
17694THY    CA332818   8.667   4.291   4.154  0.4475 -0.0227  0.0136
17694THY    HA332819   8.688   4.372   4.222  3.2123 -1.2719  0.4556
17694THY    CA432820   8.589   4.181   4.196  0.0611  0.1266  0.5077
17694THY    HA432821   8.553   4.178   4.298  0.7428  0.3546 -0.4059
17694THY    CA532822   8.559   4.080   4.103  0.5624 -0.0967 -0.7844
17694THY    CM132823   8.470   3.964   4.135 -0.1590  0.4710  0.2017
17694THY    HM132824   8.487   3.869   4.083  0.6895  0.5364  0.3096
17694THY    HM232825   8.362   3.977   4.118 -0.5223  2.3674 -0.1397
17694THY    HM332826   8.483   3.928   4.237  0.3868 -0.5380 -2.7707
17694THY    CA632827   8.616   4.090   3.973  0.4145  0.0449 -0.3042
17694THY    HA632828   8.594   4.015   3.897 -0.5989 -2.5210  2.3955
17695THY      O32829   9.091   6.257   3.289 -0.0764  0.1670  0.0921
17695THY     HO32830   9.054   6.172   3.257 -1.1744  0.8891  0.2787
17695THY    CA132831   9.191   6.215   3.375 -0.0379  0.1433 -0.6037
17695THY    CA232832   9.270   6.307   3.448  0.0073 -0.8555 -0.3755
17695THY    CP132833   9.231   6.451   3.441 -0.0633  0.1178 -0.3651
17695THY    HP132834   9.225   6.489   3.339 -1.4771  0.3558  0.1022
17695THY    CP232835   9.344   6.540   3.493  0.2442  0.0295  0.3297
17695THY    HP232836   9.324   6.643   3.462  1.2369  1.7038  1.0713
17695THY    HP332837   9.439   6.503   3.453 -0.5080  0.1638 -1.8515
17695THY    HP432838   9.357   6.540   3.602 -0.3939  0.1229  1.0597
17695THY    CP332839   9.094   6.458   3.513 -0.3544 -0.6722  0.3012
17695THY    HP532840   9.067   6.564   3.507 -1.6927 -0.9985 -0.0248
17695THY    HP632841   9.104   6.434   3.620  0.1407 -0.8091 -0.1220
17695THY    HP732842   9.011   6.404   3.465 -1.2642  1.1513 -0.0201
17695THY    CA332843   9.377   6.261   3.526 -0.7244  0.1158  0.2434
17695THY    HA332844   9.438   6.326   3.588  1.0337 -1.9368  0.6591
17695THY    CA432845   9.398   6.121   3.534  0.0283 -0.3302  0.5941
17695THY    HA432846   9.477   6.080   3.597  0.7691 -0.4525  1.7842
17695THY    CA532847   9.322   6.036   3.457 -0.5728  0.3462  0.1950
17695THY    CM132848   9.358   5.885   3.468 -0.0687  0.5435  0.2117
17695THY    HM132849   9.302   5.820   3.400 -0.2304  1.5407 -0.7268
17695THY    HM232850   9.323   5.836   3.559 -2.6776 -1.7436 -2.5402
17695THY    HM332851   9.466   5.868   3.461 -0.3933  0.9629 -2.3419
17695THY    CA632852   9.211   6.079   3.385 -0.0627 -0.7200 -0.0280
17695THY    HA632853   9.152   6.007   3.329  2.2261 -1.2904 -1.5795
17696THY      O32854   5.138   5.446   4.236 -0.0844  0.2991  0.1955
17696THY     HO32855   5.189   5.426   4.317  1.5916 -0.7799 -0.1755
17696THY    CA132856   5.203   5.548   4.182 -0.6304  0.3750  0.2717
17696THY    CA232857   5.167   5.587   4.057 -0.2720  0.0545  0.7783
17696THY    CP132858   5.059   5.509   3.975  0.7426 -0.2248 -0.2690
17696THY    HP132859   5.028   5.424   4.036 -1.2205  0.7504  1.0709
17696THY    CP232860   5.129   5.460   3.839 -0.4498 -0.5525  0.1556
17696THY    HP232861   5.228   5.423   3.866 -1.0360 -1.3710 -2.1939
17696THY    HP332862   5.134   5.542   3.766 -1.9459 -1.6907 -0.7110
17696THY    HP432863   5.070   5.386   3.783 -1.0084  0.0272  0.1472
17696THY    CP332864   4.933   5.593   3.942  0.2085  0.0924  0.1079
17696THY    HP532865   4.871   5.606   4.031 -0.5455 -0.2890 -0.7715
17696THY    HP632866   4.876   5.539   3.865 -0.1191  0.9759 -0.8269
17696THY    HP732867   4.958   5.696   3.912 -2.9902  1.3475  1.3828
17696THY    CA332868   5.231   5.691   3.996  0.7856 -0.4538 -0.0909
17696THY    HA332869   5.204   5.734   3.901  0.6824  0.5434  2.2031
17696THY    CA432870   5.332   5.759   4.073 -0.1915 -0.3812  0.4920
17696THY    HA432871   5.371   5.850   4.029 -0.6817 -3.7602 -0.7903
17696THY    CA532872   5.367   5.727   4.204  0.7408 -0.6033  0.1799
17696THY    CM132873   5.460   5.815   4.288 -0.0041 -0.0972 -0.7185
17696THY    HM132874   5.425   5.837   4.389  0.4571  0.4461 -2.4030
17696THY    HM232875   5.476   5.914   4.244  1.6481  0.1902 -0.8439
17696THY    HM332876   5.553   5.763   4.312  2.2867 -2.6228  1.8364
17696THY    CA632877   5.294   5.626   4.259  0.2667  0.2158  0.9225
17696THY    HA632878   5.313   5.590   4.360 -0.5611 -0.4510 -1.5926
17697THY      O32879   4.591   9.196   6.071  0.5575 -0.4545 -0.0458
17697THY     HO32880   4.566   9.108   6.038 -0.0376  0.5436 -0.2674
17697THY    CA132881   4.565   9.177   6.203 -0.3900  0.1927 -0.5830
17697THY    CA232882   4.637   9.247   6.308  0.2304 -0.5879  0.4678
17697THY    CP132883   4.722   9.366   6.272 -0.4144 -0.2309  1.1557
17697THY    HP132884   4.696   9.431   6.188  0.4357 -1.9391 -0.5933
17697THY    CP232885   4.856   9.302   6.235  0.2867 -0.1229 -0.0723
17697THY    HP232886   4.932   9.380   6.219 -1.5158  0.2217  1.8189
17697THY    HP332887   4.859   9.236   6.147  3.0719 -0.4731  0.3953
17697THY    HP432888   4.896   9.239   6.316  1.6162  0.0947  0.9976
17697THY    CP332889   4.734   9.470   6.389  0.3639  0.7733 -0.5714
17697THY    HP532890   4.765   9.424   6.483  0.5075  0.0002 -2.1181
17697THY    HP632891   4.641   9.527   6.390 -0.5459  0.9002 -2.0230
17697THY    HP732892   4.822   9.534   6.374 -0.7018  1.3680  1.1107
17697THY    CA332893   4.610   9.204   6.445  0.7566 -0.6318  0.3937
17697THY    HA332894   4.657   9.256   6.529  1.0155 -1.4611  1.5350
17697THY    CA432895   4.505   9.106   6.465 -0.0359 -0.3403  0.4999
17697THY    HA432896   4.480   9.084   6.568  0.9422 -0.2300 -0.1296
17697THY    CA532897   4.447   9.043   6.361 -0.4230 -0.6857  0.3214
17697THY    CM132898   4.352   8.920   6.381  0.3530  0.5823 -0.6587
17697THY    HM132899   4.248   8.942   6.356  0.3392  0.5389 -0.7735
17697THY    HM232900   4.350   8.895   6.487  1.3986  0.9738  0.7618
17697THY    HM332901   4.398   8.836   6.328  3.2665 -0.5474  1.4482
17697THY    CA632902   4.478   9.074   6.230 -0.1581 -0.3962 -0.1847
17697THY    HA632903   4.417   9.027   6.154  0.8925 -0.1246 -2.0694
17698THY      O32904   8.398   5.925   4.898  0.4802 -0.1591  0.0640
17698THY     HO32905   8.340   5.892   4.827  0.2514 -1.6796  3.2967
17698THY    CA132906   8.484   6.019   4.852 -0.2632 -0.2571 -0.4301
17698THY    CA232907   8.544   6.123   4.934  0.6152 -0.4410 -0.0827
17698THY    CP132908   8.514   6.138   5.086 -0.2086  0.5691  0.5246
17698THY    HP132909   8.417   6.093   5.110 -0.3014 -0.0683  0.3776
17698THY    CP232910   8.490   6.286   5.117 -0.0046  0.1502  0.1804
17698THY    HP232911   8.425   6.339   5.046 -0.6369  0.5298 -0.0833
17698THY    HP332912   8.589   6.334   5.124 -0.6104 -0.6848  1.6299
17698THY    HP432913   8.454   6.289   5.221  0.5364  0.5322  5.8074
17698THY    CP332914   8.625   6.069   5.169 -0.4071  0.3175  0.2650
17698THY    HP532915   8.721   6.120   5.168  0.1929 -1.5087 -0.7948
17698THY    HP632916   8.644   5.968   5.130 -3.4966  1.1716 -0.7744
17698THY    HP732917   8.595   6.071   5.274  1.0517  0.8389 -1.9456
17698THY    CA332918   8.643   6.195   4.870  0.0648  0.1691 -0.8100
17698THY    HA332919   8.701   6.267   4.927  0.5950 -1.2435 -0.0651
17698THY    CA432920   8.668   6.184   4.731 -0.1758  0.4775  0.1678
17698THY    HA432921   8.737   6.247   4.677 -0.7945  0.5914  0.9636
17698THY    CA532922   8.594   6.095   4.653  0.0637 -0.4798  0.3395
17698THY    CM132923   8.605   6.107   4.505 -0.1706  0.3172 -0.2432
17698THY    HM132924   8.549   6.024   4.459  0.9810 -0.5616 -0.5531
17698THY    HM232925   8.710   6.092   4.478 -0.3702 -0.2063 -0.7411
17698THY    HM332926   8.566   6.202   4.466 -1.3426  1.2319 -0.3239
17698THY    CA632927   8.499   6.010   4.712  0.1804  0.0148  0.7173
17698THY    HA632928   8.433   5.943   4.658  1.0681 -1.7549  1.2054
17699THY      O32929   9.057   5.454   5.007  0.2329  0.5326  0.1788
17699THY     HO32930   9.112   5.378   4.981  0.5494  0.5870  0.3879
17699THY    CA132931   9.032   5.510   4.886 -0.3151  0.4568  0.0490
17699THY    CA232932   8.953   5.625   4.869  0.1526  0.1425 -0.3407
17699THY    CP132933   8.884   5.693   4.996  0.0746  1.0100  0.4570
17699THY    HP132934   8.874   5.632   5.087  1.8585  1.3858  0.6807
17699THY    CP232935   8.741   5.737   4.959 -0.0508  0.8196  0.2395
17699THY    HP232936   8.739   5.829   4.899  0.6291 -0.3042 -0.4594
17699THY    HP332937   8.674   5.739   5.046  0.5408  1.4194 -2.4427
17699THY    HP432938   8.693   5.666   4.892 -1.2775  0.8490  1.0118
17699THY    CP332939   8.952   5.820   5.041 -0.3514  0.3309 -0.2316
17699THY    HP532940   8.922   5.870   5.133  1.9681  0.6552  0.7137
17699THY    HP632941   8.951   5.895   4.961  0.2263 -0.6712 -1.2427
17699THY    HP732942   9.059   5.795   5.037 -0.4041 -2.2093 -0.2818
17699THY    CA332943   8.936   5.683   4.744  0.0022  0.9022  0.4868
17699THY    HA332944   8.885   5.778   4.734 -0.2145 -0.9468  0.2046
17699THY    CA432945   8.990   5.623   4.634 -0.4163 -0.4426 -0.4538
17699THY    HA432946   8.966   5.661   4.535  2.9334 -0.6328  1.6470
17699THY    CA532947   9.060   5.501   4.649  0.3147 -0.6184 -0.2811
17699THY    CM132948   9.118   5.432   4.537 -0.0605  0.7327 -0.1103
17699THY    HM132949   9.115   5.322   4.537 -0.1330 -1.4404 -0.1601
17699THY    HM232950   9.218   5.470   4.516 -0.2107 -0.8384 -0.4956
17699THY    HM332951   9.065   5.455   4.444 -2.1379  1.5918 -1.1657
17699THY    CA632952   9.077   5.441   4.778  0.5421 -0.5109 -0.0026
17699THY    HA632953   9.141   5.354   4.786  3.3988 -0.9320  1.9233
17700THY      O32954   2.152   7.125   6.844  0.1816 -0.2981  0.1471
17700THY     HO32955   2.246   7.143   6.831  0.1190 -0.8314  0.1088
17700THY    CA132956   2.131   7.021   6.768  0.4305 -0.2116 -0.1810
17700THY    CA232957   2.004   7.005   6.713 -0.0829  0.0335 -0.5128
17700THY    CP132958   1.897   7.113   6.726  0.4057  0.3266 -0.6171
17700THY    HP132959   1.949   7.208   6.739  0.9858  3.8696 -1.2753
17700THY    CP232960   1.812   7.112   6.854 -0.1932 -0.3498 -0.0331
17700THY    HP232961   1.767   7.012   6.863  1.9855 -0.4402 -1.0791
17700THY    HP332962   1.726   7.181   6.854 -0.1470 -0.0156  0.0236
17700THY    HP432963   1.872   7.132   6.943  1.7881 -1.9490  1.4372
17700THY    CP332964   1.809   7.127   6.603  0.0576 -0.3761  0.4410
17700THY    HP532965   1.755   7.222   6.592 -0.2990 -2.2779  0.0573
17700THY    HP632966   1.730   7.052   6.598  0.1354  0.2301  0.3211
17700THY    HP732967   1.867   7.105   6.512  1.5413  0.2138  1.6721
17700THY    CA332968   1.974   6.888   6.638 -0.1507  0.4647  0.6579
17700THY    HA332969   1.875   6.876   6.593  0.7503 -1.2353 -0.8649
17700THY    CA432970   2.073   6.793   6.615 -0.5100  0.3988 -0.4614
17700THY    HA432971   2.066   6.708   6.549  2.2386  0.4481 -0.7993
17700THY    CA532972   2.196   6.810   6.681  0.8989 -0.2433  0.6013
17700THY    CM132973   2.291   6.696   6.694  0.6526  0.5514  0.5387
17700THY    HM132974   2.238   6.600   6.688  0.8170  1.2838  0.3891
17700THY    HM232975   2.331   6.699   6.797  1.1958  0.3426  0.6593
17700THY    HM332976   2.376   6.710   6.626 -0.4626 -0.4539  2.7845
17700THY    CA632977   2.224   6.920   6.765  0.3536  0.0244 -0.3512
17700THY    HA632978   2.316   6.927   6.823 -0.2170  0.9828 -0.6180
17701THY      O32979   7.592   2.266   5.995  0.6561  0.4452 -0.2070
17701THY     HO32980   7.663   2.299   5.937  1.7045  0.9472 -1.5162
17701THY    CA132981   7.611   2.135   6.006  0.1686  0.4783 -0.1951
17701THY    CA232982   7.544   2.058   6.103  0.8063  1.0320 -0.4346
17701THY    CP132983   7.429   2.122   6.184 -0.0403  0.5099  0.7644
17701THY    HP132984   7.412   2.228   6.164 -0.4666 -0.6186  0.4884
17701THY    CP232985   7.460   2.126   6.340  0.4628 -0.2243  0.2912
17701THY    HP232986   7.488   2.032   6.389 -1.8329  2.6101  0.9317
17701THY    HP332987   7.378   2.178   6.391  0.7502  0.5062  0.0392
17701THY    HP432988   7.546   2.192   6.357  1.6266 -2.0296 -0.6655
17701THY    CP332989   7.307   2.038   6.153  1.0827  0.1599  0.4432
17701THY    HP532990   7.224   2.100   6.190  0.1906 -0.1988 -0.5005
17701THY    HP632991   7.296   1.938   6.197  0.0167 -1.1919 -0.0615
17701THY    HP732992   7.287   2.022   6.047 -1.5214  0.6037  0.1897
17701THY    CA332993   7.577   1.920   6.111 -0.1903  0.3552  0.8194
17701THY    HA332994   7.526   1.855   6.183 -1.2828 -2.4736 -1.6965
17701THY    CA432995   7.685   1.863   6.039 -0.1136  0.3094  0.2952
17701THY    HA432996   7.710   1.759   6.056 -0.8418 -0.2014  0.0222
17701THY    CA532997   7.753   1.945   5.946  0.4164  0.1303  0.1337
17701THY    CM132998   7.866   1.889   5.859 -0.8809  1.0871  0.4198
17701THY    HM132999   7.898   1.945   5.769  2.4905  2.8049  1.5418
17701THY    HM233000   7.826   1.797   5.816 -1.2456 -0.6270  1.3302
17701THY    HM333001   7.952   1.855   5.917 -1.0149 -0.0209 -1.9816
17701THY    CA633002   7.709   2.080   5.925 -0.1769 -0.2231  0.1969
17701THY    HA633003   7.762   2.147   5.858 -1.4167  0.0672  1.5243
17702THY      O33004   8.298   3.096   6.634 -0.1440 -0.2944  0.0053
17702THY     HO33005   8.236   3.022   6.637 -0.5580  0.0776  0.3605
17702THY    CA133006   8.423   3.054   6.634 -0.0293 -0.2895  0.8142
17702THY    CA233007   8.531   3.142   6.635 -0.4259 -0.0986 -0.5878
17702THY    CP133008   8.513   3.293   6.635 -0.5622  0.4775  0.3946
17702THY    HP133009   8.408   3.320   6.618 -0.0649 -0.3640  1.8976
17702THY    CP233010   8.612   3.351   6.526  0.6495 -0.1268 -0.0838
17702THY    HP233011   8.613   3.286   6.438  2.4104  0.3652 -0.7939
17702THY    HP333012   8.716   3.334   6.556  0.2874  1.0124 -0.3865
17702THY    HP433013   8.586   3.454   6.499 -1.8420  1.9635 -0.0747
17702THY    CP333014   8.547   3.347   6.772 -0.5061  0.2565  0.5583
17702THY    HP533015   8.539   3.456   6.775 -0.2326 -0.8455  0.6228
17702THY    HP633016   8.650   3.323   6.801 -0.6375  1.6063  1.5000
17702THY    HP733017   8.487   3.297   6.849  0.6873  1.0647  0.3402
17702THY    CA333018   8.661   3.083   6.645 -0.4140 -0.4006  0.0475
17702THY    HA333019   8.752   3.142   6.652  0.4157 -2.3578 -0.9078
17702THY    CA433020   8.681   2.944   6.632 -0.1074  0.7165  0.0280
17702THY    HA433021   8.782   2.908   6.618  0.0690 -1.3104  1.1472
17702THY    CA533022   8.576   2.858   6.630  0.6675  0.3358  0.4907
17702THY    CM133023   8.591   2.711   6.603 -0.0720 -0.5002  0.4386
17702THY    HM133024   8.635   2.696   6.504 -0.3040 -0.6055  0.4395
17702THY    HM233025   8.494   2.661   6.612  0.8286 -1.3924 -1.5582
17702THY    HM333026   8.653   2.667   6.682 -2.2915  0.4608 -1.1446
17702THY    CA633027   8.446   2.917   6.624  0.3530 -0.2241 -0.1384
17702THY    HA633028   8.359   2.853   6.611 -2.3195  0.3573  3.0777
17703THY      O33029   3.606   7.884   6.855  0.4576 -0.5802  0.6759
17703THY     HO33030   3.569   7.874   6.766 -2.4354  0.7320 -2.2660
17703THY    CA133031   3.737   7.903   6.835 -0.0221 -0.2697  0.0430
17703THY    CA233032   3.836   7.818   6.887  0.2587 -0.1573 -0.2387
17703THY    CP133033   3.799   7.687   6.951 -0.3064  0.3049  0.1695
17703THY    HP133034   3.692   7.667   6.961 -1.1319 -2.0841  2.7045
17703THY    CP233035   3.869   7.648   7.081  0.1850 -0.1611 -0.4010
17703THY    HP233036   3.875   7.726   7.158  0.6859 -2.2634  1.7404
17703THY    HP333037   3.976   7.631   7.064 -0.1763 -1.9624 -1.1341
17703THY    HP433038   3.831   7.561   7.135  1.5367 -1.2630 -1.7213
17703THY    CP333039   3.845   7.573   6.862 -1.0279  0.6220 -0.4144
17703THY    HP533040   3.776   7.570   6.777  0.9849 -1.1347  0.4767
17703THY    HP633041   3.831   7.474   6.908  2.5319  2.6482 -0.1584
17703THY    HP733042   3.951   7.577   6.833 -1.3330 -0.4869 -0.0644
17703THY    CA333043   3.972   7.851   6.872 -0.2611  0.3892  0.1170
17703THY    HA333044   4.045   7.781   6.913  1.8527 -2.3633  0.5141
17703THY    CA433045   4.002   7.976   6.811  0.7505  0.3832 -0.6912
17703THY    HA433046   4.105   8.011   6.803  0.2456  0.6190  0.9323
17703THY    CA533047   3.903   8.053   6.749  0.3819 -0.0880  0.3332
17703THY    CM133048   3.926   8.177   6.673  0.1833 -0.4255 -0.3158
17703THY    HM133049   3.942   8.142   6.571 -2.1455 -0.1572 -2.4757
17703THY    HM233050   4.012   8.229   6.716 -2.1536  3.1913  1.0071
17703THY    HM333051   3.846   8.252   6.675  2.2998  0.0038  2.0651
17703THY    CA633052   3.767   8.018   6.763 -0.7615  0.3403  0.4813
17703THY    HA633053   3.690   8.085   6.725 -0.0074 -1.6504  0.2771
17704THY      O33054   8.177   6.414   6.361  0.0888  0.0538 -0.4174
17704THY     HO33055   8.100   6.364   6.328  0.4799 -0.5460 -0.6233
17704THY    CA133056   8.268   6.391   6.264 -0.1990  0.0944 -0.7392
17704THY    CA233057   8.326   6.496   6.190  0.4504 -0.0977 -0.4066
17704THY    CP133058   8.288   6.641   6.226  0.7641  0.3236 -0.7427
17704THY    HP133059   8.244   6.650   6.325  0.7446  0.2233  0.4195
17704THY    CP233060   8.173   6.707   6.148  0.4076  0.5484  0.0664
17704THY    HP233061   8.161   6.813   6.172  0.3951  2.5174 -0.3416
17704THY    HP333062   8.078   6.653   6.162 -0.7730 -0.5646  1.7650
17704THY    HP433063   8.199   6.692   6.042 -1.2399  0.1193 -0.0303
17704THY    CP333064   8.415   6.739   6.221  0.4937  0.8301 -0.2144
17704THY    HP533065   8.493   6.684   6.276  0.1484 -0.9735 -2.6825
17704THY    HP633066   8.397   6.838   6.265 -0.6501  0.7565 -0.3718
17704THY    HP733067   8.447   6.757   6.118 -3.1091 -0.1785  1.3857
17704THY    CA333068   8.426   6.469   6.099 -0.4012 -0.4110  0.7603
17704THY    HA333069   8.477   6.550   6.048 -0.5127  0.6559  1.5278
17704THY    CA433070   8.474   6.333   6.080  0.0130 -0.0840  0.2089
17704THY    HA433071   8.560   6.321   6.015 -1.4517 -2.2088  0.6355
17704THY    CA533072   8.426   6.232   6.159 -0.1806  0.0692  0.0090
17704THY    CM133073   8.482   6.094   6.144  0.4434 -0.0734  0.0536
17704THY    HM133074   8.560   6.067   6.216  0.5376 -0.8184 -1.8142
17704THY    HM233075   8.526   6.071   6.046  0.0735 -0.6009  1.4904
17704THY    HM333076   8.389   6.037   6.155 -0.2363  0.2211  1.1958
17704THY    CA633077   8.319   6.262   6.244 -0.4654 -0.1999  0.3329
17704THY    HA633078   8.286   6.186   6.314 -2.2800 -1.0104  0.3060
17705THY      O33079   7.112   2.624   4.153  0.7679 -0.2521  0.2397
17705THY     HO33080   7.147   2.714   4.161 -2.0436  0.3580  1.3697
17705THY    CA133081   7.069   2.603   4.287 -0.5412  0.7331  0.7406
17705THY    CA233082   6.998   2.487   4.324  0.6027 -0.1564  0.7798
17705THY    CP133083   6.951   2.390   4.218 -0.4694 -0.8658  0.5325
17705THY    HP133084   7.001   2.408   4.121 -0.2906 -0.8710  0.0176
17705THY    CP233085   6.801   2.402   4.186 -0.2506 -0.2481  0.3249
17705THY    HP233086   6.788   2.325   4.109 -0.2507 -1.6559  1.6790
17705THY    HP333087   6.791   2.500   4.139  2.8208 -0.5640  0.5941
17705THY    HP433088   6.750   2.379   4.280 -1.8634 -0.9709  0.7922
17705THY    CP333089   6.984   2.245   4.260  0.6099  0.4837 -0.4386
17705THY    HP533090   6.910   2.197   4.326 -1.1605  0.9133  2.5603
17705THY    HP633091   7.079   2.260   4.313  0.7766 -0.6272  3.7193
17705THY    HP733092   6.996   2.188   4.168  2.1620 -2.1742  3.7562
17705THY    CA333093   6.954   2.465   4.461 -0.5142  0.4906  0.4552
17705THY    HA333094   6.882   2.391   4.493  0.4393  0.3907 -0.5429
17705THY    CA433095   6.995   2.565   4.554 -0.3357 -0.3673 -0.7596
17705THY    HA433096   6.950   2.565   4.652 -0.5977 -0.4129  1.9265
17705THY    CA533097   7.070   2.675   4.507 -0.2746  0.7865 -0.4576
17705THY    CM133098   7.099   2.787   4.608  0.3307  0.7902 -0.5209
17705THY    HM133099   7.157   2.864   4.554  0.7921  0.8105 -0.8503
17705THY    HM233100   7.154   2.758   4.698  1.1209  0.6259  0.3817
17705THY    HM333101   7.006   2.834   4.642 -0.9164 -0.1569 -2.2078
17705THY    CA633102   7.110   2.692   4.375  0.1689 -0.8081  0.8003
17705THY    HA633103   7.177   2.775   4.351  3.6114  0.7180 -1.3272
17706THY      O33104   2.025   6.534   5.160 -0.0634  0.3146 -0.2045
17706THY     HO33105   1.935   6.496   5.153  0.8204 -1.2943 -2.2065
17706THY    CA133106   2.067   6.497   5.278 -0.7263 -0.4675  0.0030
17706THY    CA233107   2.197   6.446   5.296 -0.8350 -0.5539 -0.1718
17706THY    CP133108   2.297   6.441   5.179  0.3401 -0.1766 -0.3547
17706THY    HP133109   2.255   6.480   5.085 -1.3551 -0.1775 -2.0263
17706THY    CP233110   2.318   6.295   5.139 -0.5444  0.5693  0.0682
17706THY    HP233111   2.369   6.240   5.220  0.5286  0.2789  0.6103
17706THY    HP333112   2.385   6.279   5.053 -0.6610  0.3115  0.9317
17706THY    HP433113   2.226   6.247   5.104  0.9513  0.8282 -3.3238
17706THY    CP333114   2.426   6.524   5.199  0.3465 -0.0257 -0.0024
17706THY    HP533115   2.503   6.469   5.143 -0.6806 -1.1779 -0.3031
17706THY    HP633116   2.458   6.536   5.304  2.4940 -0.6514  0.2733
17706THY    HP733117   2.417   6.623   5.152  0.8964 -0.7552 -0.2925
17706THY    CA333118   2.236   6.423   5.429 -0.3358  0.3741  0.4799
17706THY    HA333119   2.339   6.394   5.445 -0.1642  1.2534  1.5199
17706THY    CA433120   2.154   6.430   5.538 -0.0304  0.2046 -0.2958
17706THY    HA433121   2.189   6.420   5.640 -0.1752  0.3340  0.4888
17706THY    CA533122   2.017   6.465   5.513 -0.2350 -0.1798 -0.1415
17706THY    CM133123   1.924   6.480   5.629  0.1379 -0.2020 -0.7109
17706THY    HM133124   1.906   6.385   5.680 -0.9401  1.2827  0.2513
17706THY    HM233125   1.827   6.504   5.585  0.8961 -0.9971  1.0881
17706THY    HM333126   1.964   6.549   5.705 -0.1771  0.7163 -1.5251
17706THY    CA633127   1.972   6.497   5.381 -0.8356  0.4227 -0.1112
17706THY    HA633128   1.866   6.507   5.362 -0.3315 -2.1559  0.9558
17707THY      O33129   5.776   1.272   7.316  0.3007 -0.8388 -0.0763
17707THY     HO33130   5.781   1.292   7.221 -0.6425 -0.8296  0.2907
17707THY    CA133131   5.644   1.301   7.337  0.2495  0.3095  0.5007
17707THY    CA233132   5.580   1.245   7.450 -0.3855 -1.0213  0.1693
17707THY    CP133133   5.663   1.143   7.530 -0.7478  0.7578  0.1918
17707THY    HP133134   5.767   1.179   7.534 -0.3577 -2.9999 -0.0606
17707THY    CP233135   5.667   1.005   7.464  0.1149  0.3806  0.5652
17707THY    HP233136   5.760   0.959   7.499  0.1950 -1.2277 -0.5650
17707THY    HP333137   5.675   1.017   7.356 -2.3996  0.2298  1.4240
17707THY    HP433138   5.576   0.947   7.485  0.3520 -1.1120 -0.3845
17707THY    CP333139   5.620   1.138   7.682  0.1143  0.2457 -1.0228
17707THY    HP533140   5.595   1.239   7.716 -2.4407  1.4811 -1.9772
17707THY    HP633141   5.699   1.084   7.736  0.5199 -1.7939 -2.6183
17707THY    HP733142   5.529   1.078   7.696  0.3246 -1.1648 -1.7279
17707THY    CA333143   5.447   1.275   7.472 -0.3114 -0.3121  0.4404
17707THY    HA333144   5.395   1.231   7.557  2.3990  0.9339 -0.6405
17707THY    CA433145   5.388   1.374   7.387  0.3202  0.2496  0.5226
17707THY    HA433146   5.285   1.398   7.412 -0.7115  1.0214 -3.7925
17707THY    CA533147   5.458   1.436   7.289 -0.6090  0.1515  0.0614
17707THY    CM133148   5.392   1.550   7.219 -0.1051 -0.2435 -0.4494
17707THY    HM133149   5.434   1.567   7.119  3.1495  1.1203  0.3994
17707THY    HM233150   5.412   1.645   7.271  1.3298 -0.2530 -0.7184
17707THY    HM333151   5.284   1.534   7.211 -0.2659 -0.0320  0.4529
17707THY    CA633152   5.590   1.399   7.261  0.0816 -0.1468  0.1399
17707THY    HA633153   5.642   1.451   7.181 -0.6422 -0.6144  0.1691
17708THY      O33154   8.907   0.386   4.183  0.0294 -0.4755 -0.7657
17708THY     HO33155   8.950   0.392   4.270 -1.7169  0.3360  1.1292
17708THY    CA133156   8.998   0.402   4.088  0.3432 -0.3942 -0.3402
17708THY    CA233157   8.964   0.388   3.950 -0.9285 -0.1449 -0.1647
17708THY    CP133158   8.819   0.380   3.904  0.6809  0.2725  0.3460
17708THY    HP133159   8.753   0.349   3.986 -1.4285 -1.3938  0.1360
17708THY    CP233160   8.804   0.261   3.808  0.1701 -0.4442  0.1147
17708THY    HP233161   8.832   0.163   3.850  0.8498  0.2909  0.6153
17708THY    HP333162   8.874   0.268   3.724 -0.6389 -0.9510  2.9510
17708THY    HP433163   8.710   0.266   3.752  1.0158 -1.7738  2.0097
17708THY    CP333164   8.771   0.512   3.841  0.1688 -0.4714  0.6447
17708THY    HP533165   8.665   0.526   3.862  0.0129 -1.4281  0.9859
17708THY    HP633166   8.782   0.515   3.732  1.7124 -0.5181 -2.4387
17708THY    HP733167   8.818   0.600   3.886  0.2978  1.3579 -0.3109
17708THY    CA333168   9.071   0.382   3.860 -0.6745 -0.5051  0.1762
17708THY    HA333169   9.058   0.374   3.752  1.2524 -0.9459  1.9315
17708THY    CA433170   9.203   0.388   3.907  0.9918  0.0784  0.4810
17708THY    HA433171   9.292   0.388   3.844  1.8601  1.2257 -1.2088
17708THY    CA533172   9.235   0.404   4.042 -0.0178  0.4230  0.5237
17708THY    CM133173   9.381   0.408   4.091  0.7544 -0.6776 -0.1625
17708THY    HM133174   9.376   0.380   4.197 -0.2235 -1.0347 -1.4604
17708THY    HM233175   9.436   0.498   4.059  0.0849 -3.9213 -0.7804
17708THY    HM333176   9.444   0.334   4.040  0.9006 -1.8988  0.7668
17708THY    CA633177   9.131   0.407   4.134  0.2044 -0.0857  0.5648
17708THY    HA633178   9.152   0.415   4.240 -0.0109  0.1595 -1.4982
17709THY      O33179   3.124   6.668   3.724 -0.4624 -0.0634  0.3653
17709THY     HO33180   3.040   6.629   3.693  1.0440 -1.3375 -2.1085
17709THY    CA133181   3.083   6.795   3.747  0.4196 -0.3653 -0.0040
17709THY    CA233182   3.176   6.900   3.771  0.2906 -0.2390  0.0652
17709THY    CP133183   3.317   6.880   3.755 -0.4707 -0.5374 -1.1596
17709THY    HP133184   3.342   6.794   3.692 -1.1381 -0.7992 -1.1656
17709THY    CP233185   3.382   6.885   3.897 -0.3201 -0.0808 -1.0619
17709THY    HP233186   3.373   6.974   3.960  0.8193  1.0766 -1.7484
17709THY    HP333187   3.488   6.863   3.877 -0.6018 -1.3105 -1.3997
17709THY    HP433188   3.348   6.802   3.958  1.3944 -0.8479 -2.3888
17709THY    CP333189   3.376   6.991   3.665  0.3803 -0.1334 -0.0822
17709THY    HP533190   3.484   6.980   3.652  0.6762 -0.5668  2.5272
17709THY    HP633191   3.353   7.088   3.711 -3.6625  1.2948 -1.5025
17709THY    HP733192   3.340   6.986   3.561  0.1848 -0.0372 -0.7279
17709THY    CA333193   3.108   7.018   3.827  0.6190 -0.4433  0.7828
17709THY    HA333194   3.160   7.105   3.865  0.5241  0.2957  0.5245
17709THY    CA433195   2.973   7.018   3.858 -0.3448 -0.4013  0.3876
17709THY    HA433196   2.933   7.097   3.920 -2.4477 -0.4814 -0.5479
17709THY    CA533197   2.892   6.909   3.841 -0.1937  0.2400 -0.1255
17709THY    CM133198   2.757   6.908   3.899  0.1328 -0.1295  0.0981
17709THY    HM133199   2.767   6.881   4.005 -0.5306  0.8661  3.3626
17709THY    HM233200   2.690   6.837   3.850  0.8421 -1.2176  0.1675
17709THY    HM333201   2.705   7.004   3.895 -0.1808 -0.0701 -0.0657
17709THY    CA633202   2.946   6.795   3.788 -0.0768  0.4066  0.4675
17709THY    HA633203   2.883   6.707   3.773  0.0047 -0.1280  0.5015
17710THY      O33204   5.309   3.707   7.370  0.1347 -0.1360  0.2458
17710THY     HO33205   5.234   3.646   7.358  1.9298 -5.4258 -1.4423
17710THY    CA133206   5.274   3.782   7.474  0.1655  0.7575 -0.6629
17710THY    CA233207   5.361   3.807   7.581 -0.4019 -0.1025  0.3439
17710THY    CP133208   5.505   3.754   7.588  0.2923 -0.0974  0.1107
17710THY    HP133209   5.523   3.698   7.496 -2.6522  0.6208 -2.2840
17710THY    CP233210   5.522   3.661   7.711  0.6102  0.0553  0.0159
17710THY    HP233211   5.501   3.715   7.805 -1.0596 -1.1521  1.6180
17710THY    HP333212   5.613   3.606   7.733  0.6331 -0.8857 -0.3350
17710THY    HP433213   5.446   3.582   7.710  0.9366 -0.6312 -0.2909
17710THY    CP333214   5.609   3.862   7.589 -0.1554  0.3902  0.0043
17710THY    HP533215   5.710   3.827   7.612 -0.1894  3.0207  1.4065
17710THY    HP633216   5.580   3.937   7.663  2.9375 -0.0705  1.8405
17710THY    HP733217   5.605   3.919   7.495 -2.4555 -0.4353 -1.3661
17710THY    CA333218   5.311   3.896   7.686 -0.1660 -0.1051  0.3278
17710THY    HA333219   5.373   3.932   7.767 -0.9763  0.2057  1.0646
17710THY    CA433220   5.186   3.955   7.670 -0.3600 -0.0358  0.0511
17710THY    HA433221   5.149   4.017   7.751  0.0675  0.9799 -0.9884
17710THY    CA533222   5.100   3.936   7.558 -0.0368  0.5554 -0.0629
17710THY    CM133223   4.976   4.015   7.539  0.0814 -0.0334 -0.3267
17710THY    HM133224   4.930   4.040   7.635 -0.6176  0.1212 -2.0816
17710THY    HM233225   4.901   3.956   7.484 -0.2838  2.1950 -2.0717
17710THY    HM333226   4.996   4.111   7.489 -1.0548  0.6223  0.2660
17710THY    CA633227   5.144   3.844   7.460 -0.1809 -0.5311  0.1002
17710THY    HA633228   5.070   3.826   7.383 -2.2706  0.6532  2.8913
17711THY      O33229   8.448   1.462   5.728 -0.0982  0.1179 -0.1472
17711THY     HO33230   8.543   1.442   5.721  0.5924  2.5385  1.7588
17711THY    CA133231   8.399   1.481   5.601  0.1822 -0.5707 -0.8250
17711THY    CA233232   8.333   1.596   5.556 -0.2021  0.3030 -0.9944
17711THY    CP133233   8.321   1.718   5.651 -0.0765 -0.1564 -0.3686
17711THY    HP133234   8.331   1.693   5.757  0.6498 -0.0719  0.2285
17711THY    CP233235   8.189   1.801   5.637  0.2300 -0.0034  0.2288
17711THY    HP233236   8.182   1.880   5.713 -0.1823 -0.0125  0.2023
17711THY    HP333237   8.106   1.733   5.661  0.3932  5.1559  1.3848
17711THY    HP433238   8.178   1.860   5.545 -1.3887  1.0739  1.7362
17711THY    CP333239   8.430   1.812   5.622  0.0874  0.3953  0.0572
17711THY    HP533240   8.430   1.901   5.686 -0.7303 -0.7991  0.9438
17711THY    HP633241   8.431   1.843   5.517 -3.8679  0.2047  0.1432
17711THY    HP733242   8.520   1.753   5.641  0.9322 -0.9623  0.8619
17711THY    CA333243   8.301   1.612   5.415  0.2951  0.0113  0.5377
17711THY    HA333244   8.245   1.697   5.377 -1.4058 -1.2514 -1.0588
17711THY    CA433245   8.334   1.500   5.326  0.2918  0.5515 -0.1926
17711THY    HA433246   8.317   1.506   5.219  0.2371  0.5801  0.1358
17711THY    CA533247   8.393   1.387   5.378 -0.1530 -0.1172 -0.5262
17711THY    CM133248   8.416   1.268   5.283 -0.1464  0.3844  0.0446
17711THY    HM133249   8.327   1.205   5.276  0.0838  2.1291 -0.5390
17711THY    HM233250   8.496   1.202   5.321  1.5626  1.2167  2.4416
17711THY    HM333251   8.436   1.306   5.182 -0.7326  0.6117  0.9997
17711THY    CA633252   8.430   1.379   5.513  0.1696 -0.9975  0.3641
17711THY    HA633253   8.489   1.292   5.540  0.4342 -0.1397  0.8018
17712THY      O33254   3.286   8.101   6.784 -0.3572 -0.1471 -0.2097
17712THY     HO33255   3.305   8.071   6.874  3.8658 -1.1676 -1.2797
17712THY    CA133256   3.262   8.231   6.779 -0.0667 -0.5312  0.4428
17712THY    CA233257   3.237   8.293   6.656 -0.2198  0.1716 -0.2046
17712THY    CP133258   3.241   8.215   6.520 -0.6258 -0.5281  0.1819
17712THY    HP133259   3.215   8.110   6.540 -1.3944 -1.2692  0.2197
17712THY    CP233260   3.369   8.218   6.444  0.3133 -0.1987  1.3606
17712THY    HP233261   3.448   8.196   6.516 -0.0436 -0.4218 -0.8422
17712THY    HP333262   3.391   8.312   6.392  2.6715 -2.2924 -0.1972
17712THY    HP433263   3.385   8.138   6.371  2.7238  1.2441  0.4166
17712THY    CP333264   3.132   8.264   6.429 -0.3317  0.7170  0.3368
17712THY    HP533265   3.097   8.183   6.363 -1.6449 -0.3998  1.7743
17712THY    HP633266   3.160   8.357   6.379 -3.2686 -0.3715  0.7351
17712THY    HP733267   3.047   8.292   6.492 -1.4937 -0.5403 -0.2437
17712THY    CA333268   3.200   8.431   6.664  0.3414  0.3147  0.7738
17712THY    HA333269   3.179   8.482   6.571 -1.6337  1.2753  1.8362
17712THY    CA433270   3.197   8.497   6.789  0.4426  0.7467 -0.1348
17712THY    HA433271   3.172   8.602   6.780 -1.6500 -1.2088 -0.7331
17712THY    CA533272   3.210   8.426   6.910  0.3679  0.2360  0.2821
17712THY    CM133273   3.196   8.502   7.032 -0.0571 -0.3443  0.8711
17712THY    HM133274   3.204   8.610   7.017  0.9991 -1.4001  0.6626
17712THY    HM233275   3.271   8.465   7.103 -0.5042  0.0494  0.7050
17712THY    HM333276   3.096   8.489   7.076  0.5024  1.0255  1.1119
17712THY    CA633277   3.242   8.294   6.903 -0.7539  0.0928  0.3910
17712THY    HA633278   3.256   8.243   6.998 -1.5361 -0.4444 -0.8813
17713THY      O33279   8.170   8.120   2.392 -0.0246 -0.2916 -0.0886
17713THY     HO33280   8.242   8.095   2.452  0.8438 -0.7282  1.2170
17713THY    CA133281   8.233   8.102   2.281 -0.1148  0.1008 -0.3618
17713THY    CA233282   8.210   8.182   2.164 -0.4835  0.6523 -0.6113
17713THY    CP133283   8.121   8.303   2.171  0.2271  0.1719 -0.2377
17713THY    HP133284   8.062   8.293   2.263  0.3278  0.1784 -0.8452
17713THY    CP233285   8.014   8.305   2.059 -0.8144  0.0545  0.4602
17713THY    HP233286   7.969   8.205   2.061  2.1278  1.1456 -0.9924
17713THY    HP333287   8.053   8.315   1.957  0.6474  0.4791 -0.4533
17713THY    HP433288   7.943   8.381   2.093  0.5544  0.3073  1.6831
17713THY    CP333289   8.194   8.429   2.177  0.0540 -0.7084  0.7108
17713THY    HP533290   8.269   8.430   2.097  1.4972  0.4005 -2.6971
17713THY    HP633291   8.248   8.441   2.272 -3.0154  1.3127 -0.4391
17713THY    HP733292   8.117   8.507   2.178 -2.0140  1.4617 -1.1869
17713THY    CA333293   8.266   8.140   2.044  0.2189  0.3008 -0.6907
17713THY    HA333294   8.257   8.202   1.955  0.6812 -0.7260 -2.0470
17713THY    CA433295   8.346   8.026   2.039 -0.1931  0.1230  0.1074
17713THY    HA433296   8.408   7.999   1.954  0.9845  0.0610  2.6844
17713THY    CA533297   8.360   7.950   2.151  0.2199 -0.1985 -0.5828
17713THY    CM133298   8.430   7.816   2.139 -0.3772  0.3163  0.3994
17713THY    HM133299   8.460   7.791   2.037 -0.4996  0.1778  0.7975
17713THY    HM233300   8.352   7.746   2.172  1.5985  1.8412 -1.1814
17713THY    HM333301   8.514   7.810   2.208  0.2652 -0.2997  1.7244
17713THY    CA633302   8.307   7.987   2.270  0.4029  0.3827 -0.7534
17713THY    HA633303   8.309   7.923   2.357 -3.0918 -0.5745 -2.4201
17714THY      O33304   0.410   1.328   6.733  0.1789 -0.1013 -0.8440
17714THY     HO33305   0.419   1.413   6.687  0.7205 -0.1231 -0.9066
17714THY    CA133306   0.522   1.259   6.695 -0.2799  0.5165 -0.4980
17714THY    CA233307   0.562   1.136   6.749  0.2753 -0.8527 -0.0229
17714THY    CP133308   0.470   1.060   6.846  0.0832 -0.1476 -0.6578
17714THY    HP133309   0.378   1.114   6.871  0.2650 -1.4042  0.2985
17714THY    CP233310   0.535   1.045   6.984  0.1724 -0.2006 -0.4560
17714THY    HP233311   0.590   0.950   6.989  0.5349 -2.4877 -0.4235
17714THY    HP333312   0.470   1.063   7.071  0.9599  0.1533  0.8788
17714THY    HP433313   0.604   1.127   7.006  0.3802  0.7329 -0.8620
17714THY    CP333314   0.431   0.929   6.780 -0.1498  0.6614  0.4002
17714THY    HP533315   0.376   0.953   6.688 -1.8720  1.3420 -0.7374
17714THY    HP633316   0.358   0.878   6.843 -1.0576 -2.0506 -1.8915
17714THY    HP733317   0.508   0.857   6.750 -2.0739 -2.6134 -0.5266
17714THY    CA333318   0.694   1.086   6.718  0.0726  0.7606 -0.6404
17714THY    HA333319   0.715   0.988   6.760  0.4650 -0.0813 -0.9295
17714THY    CA433320   0.767   1.153   6.617  0.3547 -0.2886  0.1840
17714THY    HA433321   0.865   1.115   6.590  0.3150  0.1367 -0.2374
17714THY    CA533322   0.727   1.270   6.560 -0.5242  0.3747  0.4237
17714THY    CM133323   0.826   1.344   6.465 -0.0579  0.3571  0.0841
17714THY    HM133324   0.920   1.374   6.514  0.5936 -0.9642  0.2825
17714THY    HM233325   0.772   1.430   6.424  0.5222 -0.6774 -0.0231
17714THY    HM333326   0.869   1.288   6.381  1.9976  0.1149  1.8909
17714THY    CA633327   0.609   1.330   6.604 -0.1335 -0.4502  0.1268
17714THY    HA633328   0.577   1.423   6.558 -0.6146 -2.5046 -0.9820
17715THY      O33329   1.180   3.085   5.400 -0.5600 -0.1761  0.3268
17715THY     HO33330   1.245   3.013   5.388  2.0425  0.3763  2.4400
17715THY    CA133331   1.132   3.088   5.529 -0.2979  1.2695  1.1751
17715THY    CA233332   1.033   3.180   5.574 -0.0065  0.4570  0.3061
17715THY    CP133333   0.976   3.263   5.463 -0.9235  0.6516  0.3063
17715THY    HP133334   1.049   3.283   5.383 -0.1420  0.9788 -1.0967
17715THY    CP233335   0.939   3.400   5.514 -0.6915  0.1974  0.1386
17715THY    HP233336   0.958   3.472   5.433  0.1750 -0.2580 -0.5710
17715THY    HP333337   1.005   3.433   5.595  0.5933 -0.3367 -1.0250
17715THY    HP433338   0.834   3.403   5.544 -1.4142 -1.6462 -2.7514
17715THY    CP333339   0.852   3.194   5.405 -0.1366  1.5175 -0.3118
17715THY    HP533340   0.816   3.245   5.315 -1.4234  1.5620 -1.0769
17715THY    HP633341   0.772   3.183   5.480 -0.2570  1.3771 -0.4069
17715THY    HP733342   0.864   3.098   5.352 -0.0789 -0.5218  0.7765
17715THY    CA333343   0.989   3.179   5.710  0.1349  0.7108  0.0915
17715THY    HA333344   0.914   3.255   5.732  1.4734  0.1124  1.6565
17715THY    CA433345   1.035   3.084   5.797 -0.1367  0.2089 -0.1169
17715THY    HA433346   1.002   3.090   5.900 -3.4671 -0.7210 -0.7759
17715THY    CA533347   1.135   2.991   5.758 -0.1502 -0.1624  0.4635
17715THY    CM133348   1.214   2.913   5.865  0.2014 -0.6877 -0.6438
17715THY    HM133349   1.149   2.827   5.887  0.5300 -2.1556 -1.2986
17715THY    HM233350   1.238   2.984   5.945 -1.5981 -1.2069  0.6187
17715THY    HM333351   1.298   2.864   5.814  0.3005 -0.8245 -0.3305
17715THY    CA633352   1.182   2.997   5.629  0.3421 -0.5446 -0.0953
17715THY    HA633353   1.263   2.929   5.608  0.6187 -0.1056  0.0947
17716THY      O33354   5.697   0.491   7.116  0.1115  0.4375 -0.4654
17716THY     HO33355   5.660   0.580   7.104 -2.5706 -1.5811 -1.7274
17716THY    CA133356   5.758   0.474   7.233 -0.3055  0.2370  0.2888
17716THY    CA233357   5.873   0.401   7.250 -0.4260 -0.3039 -0.2412
17716THY    CP133358   5.944   0.335   7.131  0.3605  1.1285 -0.4233
17716THY    HP133359   5.889   0.354   7.038  0.9836  0.8423  0.0287
17716THY    CP233360   5.972   0.184   7.154 -0.5305 -0.0030  0.6996
17716THY    HP233361   5.998   0.132   7.061  0.6260 -0.0630  1.3484
17716THY    HP333362   5.887   0.133   7.201  0.1433 -0.9941 -1.4257
17716THY    HP433363   6.060   0.177   7.219 -1.4473  1.0614 -2.8325
17716THY    CP333364   6.078   0.399   7.097  0.3808 -0.3648  0.2407
17716THY    HP533365   6.133   0.410   7.192  0.1900 -0.1445 -0.6575
17716THY    HP633366   6.057   0.499   7.058  0.0254 -0.2108  0.2273
17716THY    HP733367   6.137   0.337   7.029  1.0245  0.5033 -0.1278
17716THY    CA333368   5.924   0.396   7.379  0.3121 -0.4034  0.0153
17716THY    HA333369   6.006   0.327   7.397 -0.0058  0.1222 -0.2324
17716THY    CA433370   5.856   0.466   7.483 -0.1383  0.4871 -0.0890
17716THY    HA433371   5.895   0.449   7.583  0.5825 -0.2255 -3.2366
17716THY    CA533372   5.735   0.531   7.463  0.0433  0.3273  0.0424
17716THY    CM133373   5.664   0.587   7.587 -0.8891 -0.0909  0.4298
17716THY    HM133374   5.661   0.515   7.670  0.4507 -0.2599  0.1608
17716THY    HM233375   5.562   0.617   7.559 -0.8793 -1.6634 -0.8832
17716THY    HM333376   5.733   0.664   7.621  0.9217 -0.8411 -0.7961
17716THY    CA633377   5.690   0.541   7.330 -0.3724 -0.2197 -0.2357
17716THY    HA633378   5.596   0.595   7.317  0.0424  1.2368  0.9032
17717THY      O33379   4.748   3.337   6.003  0.4169 -0.3011 -0.1456
17717THY     HO33380   4.720   3.297   6.087 -0.3876 -0.8485 -0.7667
17717THY    CA133381   4.759   3.470   6.031  0.0954  0.2233 -0.2690
17717THY    CA233382   4.802   3.556   5.929  0.6276 -0.0066  0.1806
17717THY    CP133383   4.829   3.506   5.785  0.1331  0.5764  0.1636
17717THY    HP133384   4.759   3.425   5.760 -1.2977  2.6312  0.6773
17717THY    CP233385   4.969   3.455   5.770  0.3439 -0.6876  0.1596
17717THY    HP233386   4.985   3.419   5.668  1.9120  0.0830 -1.5010
17717THY    HP333387   4.986   3.372   5.840  0.4196  0.4204  1.0900
17717THY    HP433388   5.053   3.519   5.799 -0.0175  2.2801 -0.5575
17717THY    CP333389   4.801   3.625   5.691 -0.0721 -0.1580  0.7724
17717THY    HP533390   4.881   3.698   5.704  0.3694 -3.4048  0.9736
17717THY    HP633391   4.707   3.673   5.722 -1.2669 -1.3526 -0.6971
17717THY    HP733392   4.794   3.599   5.585 -2.2567 -0.3129  1.7576
17717THY    CA333393   4.822   3.695   5.970 -0.3426  0.5210 -0.3268
17717THY    HA333394   4.843   3.781   5.907 -0.1103  0.4883 -0.4058
17717THY    CA433395   4.806   3.735   6.105  0.1730  0.1717 -0.1304
17717THY    HA433396   4.817   3.838   6.137  0.3931 -2.5958  0.7789
17717THY    CA533397   4.765   3.641   6.199 -0.3257 -0.0122  0.0734
17717THY    CM133398   4.733   3.692   6.337  0.0232  0.1002 -0.2573
17717THY    HM133399   4.658   3.623   6.378 -0.9153 -2.2366 -0.7133
17717THY    HM233400   4.692   3.793   6.335  1.3131  0.8908  0.3129
17717THY    HM333401   4.817   3.689   6.408 -0.6626  0.9674  0.3608
17717THY    CA633402   4.739   3.506   6.163 -0.2878 -0.2544 -0.3636
17717THY    HA633403   4.705   3.435   6.237 -1.7656  0.1118  0.7016
17718THY      O33404   7.033   7.840   1.926  0.1574  0.4842  0.7622
17718THY     HO33405   7.120   7.884   1.930 -0.7235  0.8108  2.5739
17718THY    CA133406   7.022   7.773   2.044  0.9536 -0.8832 -0.0843
17718THY    CA233407   6.897   7.716   2.084  0.0454  0.1086  0.2107
17718THY    CP133408   6.774   7.722   1.996  0.2244 -0.5021 -0.0436
17718THY    HP133409   6.784   7.788   1.909 -0.1407 -0.9659 -0.5864
17718THY    CP233410   6.650   7.780   2.068 -0.4997  0.4055 -0.5160
17718THY    HP233411   6.574   7.799   1.991  0.5932 -0.6058 -0.1043
17718THY    HP333412   6.672   7.879   2.110 -2.9540  1.5447 -0.3762
17718THY    HP433413   6.615   7.717   2.150 -1.5630  0.3369 -0.0482
17718THY    CP333414   6.744   7.571   1.949 -0.9325  0.2127  0.0456
17718THY    HP533415   6.833   7.536   1.896  0.2899  1.7116  0.7505
17718THY    HP633416   6.657   7.554   1.885 -0.9718  0.7734 -2.3153
17718THY    HP733417   6.734   7.499   2.032  1.6854  1.2111  0.7173
17718THY    CA333418   6.893   7.648   2.212 -0.1249 -0.2886 -0.3853
17718THY    HA333419   6.803   7.614   2.261  0.8156  1.9445  0.1343
17718THY    CA433420   7.008   7.643   2.294  0.3963 -0.0442 -0.2335
17718THY    HA433421   7.003   7.609   2.397  0.8753  0.6753  1.7119
17718THY    CA533422   7.128   7.707   2.249 -0.6010 -0.9233  0.7512
17718THY    CM133423   7.245   7.716   2.351 -0.2429  0.5898  0.5540
17718THY    HM133424   7.219   7.702   2.457  3.2514  1.5456  0.2390
17718THY    HM233425   7.288   7.816   2.348 -2.1625  1.0383  1.4295
17718THY    HM333426   7.323   7.642   2.330 -2.2905  0.5589 -1.7162
17718THY    CA633427   7.137   7.767   2.125 -0.5090  0.6374  0.6565
17718THY    HA633428   7.228   7.809   2.084 -0.6645  0.1119  0.4823
17719THY      O33429   8.799   2.912   2.386  0.0972 -0.3769 -0.5941
17719THY     HO33430   8.798   3.009   2.396 -1.5238 -0.6819 -0.5476
17719THY    CA133431   8.908   2.878   2.308 -0.0296  0.5313 -0.7474
17719THY    CA233432   8.916   2.752   2.249 -0.8237 -0.1134  0.4703
17719THY    CP133433   8.804   2.651   2.272 -0.5898  0.6617 -0.3904
17719THY    HP133434   8.761   2.664   2.372  0.3152  1.2421 -1.6731
17719THY    CP233435   8.866   2.508   2.288 -0.3412 -0.5719  0.2840
17719THY    HP233436   8.800   2.439   2.343  0.2839 -0.7755 -0.4822
17719THY    HP333437   8.951   2.507   2.357 -2.3810  2.1296 -1.5133
17719THY    HP433438   8.900   2.466   2.193  1.2506 -1.0652  2.5255
17719THY    CP333439   8.709   2.661   2.158  1.1089 -0.0810  0.2580
17719THY    HP533440   8.676   2.763   2.134 -0.8825 -1.0189 -0.5587
17719THY    HP633441   8.622   2.597   2.175  1.9301 -1.3551 -1.2694
17719THY    HP733442   8.759   2.621   2.069  1.1158 -0.0627  0.2263
17719THY    CA333443   9.035   2.716   2.183  0.1017  0.1777 -0.3439
17719THY    HA333444   9.037   2.624   2.125  2.2708  0.5218 -0.5817
17719THY    CA433445   9.142   2.813   2.168  0.6358 -0.3432  0.5009
17719THY    HA433446   9.233   2.794   2.112 -0.0734 -1.9327  1.5548
17719THY    CA533447   9.123   2.943   2.227 -0.1549 -0.5634  0.5992
17719THY    CM133448   9.220   3.045   2.209 -0.2312 -0.4992  0.1372
17719THY    HM133449   9.191   3.119   2.134  3.3452  0.4010  2.7337
17719THY    HM233450   9.318   3.008   2.179  1.5570  0.8099  3.4096
17719THY    HM333451   9.240   3.115   2.292  0.2285 -1.2577  0.9262
17719THY    CA633452   9.016   2.966   2.306  0.1856 -0.5008  0.3085
17719THY    HA633453   9.013   3.068   2.345  0.5264 -1.3666  0.6599
17720THY      O33454   1.841   1.907   6.153 -1.1827  0.4206  0.2634
17720THY     HO33455   1.895   1.963   6.095 -1.3205  0.2801  0.2504
17720THY    CA133456   1.894   1.782   6.129 -0.4208 -0.2924 -0.4338
17720THY    CA233457   1.848   1.664   6.195  0.0433  0.2407 -0.4324
17720THY    CP133458   1.727   1.672   6.288  0.1458  0.1764  0.2732
17720THY    HP133459   1.694   1.777   6.286  1.0639 -3.0394  0.6093
17720THY    CP233460   1.755   1.614   6.431 -0.3931  0.5591 -0.3346
17720THY    HP233461   1.661   1.603   6.487 -1.4028 -1.5154 -3.3356
17720THY    HP333462   1.828   1.675   6.486 -0.8119  1.3506 -0.5353
17720THY    HP433463   1.801   1.515   6.424  1.4546 -1.4642  0.5964
17720THY    CP333464   1.603   1.599   6.225  0.6810 -0.6164 -0.1625
17720THY    HP533465   1.570   1.652   6.135 -0.2780 -0.8745 -1.1892
17720THY    HP633466   1.510   1.618   6.280 -0.3348 -2.7099  1.4258
17720THY    HP733467   1.620   1.491   6.217 -0.7332  1.7189 -0.6288
17720THY    CA333468   1.901   1.541   6.161 -0.3521 -0.4230  0.3991
17720THY    HA333469   1.857   1.446   6.192 -0.5295 -0.1473  0.5683
17720THY    CA433470   1.997   1.531   6.058  0.3625 -0.5772 -0.4388
17720THY    HA433471   2.040   1.432   6.046  3.0295  2.4478  0.2149
17720THY    CA533472   2.052   1.644   5.997 -0.1899 -0.5945  0.3158
17720THY    CM133473   2.162   1.639   5.895  0.4166 -0.0170 -0.6058
17720THY    HM133474   2.230   1.554   5.903  0.0783 -1.8166 -1.0841
17720THY    HM233475   2.200   1.740   5.876 -0.7156 -0.8146 -0.3159
17720THY    HM333476   2.113   1.619   5.799  1.1589 -0.4071 -0.5878
17720THY    CA633477   2.003   1.771   6.038  0.5519  0.4938  0.7372
17720THY    HA633478   2.036   1.863   5.991 -2.4930 -0.1053  1.6334
17721THY      O33479   6.179   2.240   7.407  0.0110 -0.3304  0.0058
17721THY     HO33480   6.144   2.154   7.434 -0.6591  1.6750  0.8517
17721THY    CA133481   6.073   2.306   7.376 -0.4426 -0.6197  0.4671
17721THY    CA233482   6.073   2.441   7.360 -0.0074 -0.1403 -0.1609
17721THY    CP133483   6.206   2.525   7.363  0.7317  0.4943 -0.3884
17721THY    HP133484   6.292   2.463   7.391  0.0453 -1.5969 -2.4563
17721THY    CP233485   6.200   2.651   7.448  0.7157  0.3527  0.2327
17721THY    HP233486   6.149   2.731   7.393 -0.3123  1.0165  0.0514
17721THY    HP333487   6.301   2.685   7.474  0.8261  0.9862 -0.5586
17721THY    HP433488   6.147   2.639   7.543 -3.0812 -1.4302  1.1498
17721THY    CP333489   6.260   2.576   7.222  0.5701  0.5892  0.0830
17721THY    HP533490   6.173   2.609   7.164 -0.8536  1.5945 -1.7294
17721THY    HP633491   6.295   2.487   7.168 -1.1173  1.0214 -0.8843
17721THY    HP733492   6.336   2.652   7.239 -1.7174  0.6288  2.5014
17721THY    CA333493   5.953   2.506   7.331  0.2048  0.2782 -0.6328
17721THY    HA333494   5.953   2.613   7.316  2.8679  1.0963 -0.4444
17721THY    CA433495   5.840   2.429   7.317 -0.1025  0.2758 -0.1821
17721THY    HA433496   5.750   2.475   7.276  0.5254 -1.5303 -0.4926
17721THY    CA533497   5.836   2.291   7.329  0.6188  0.2643 -0.7390
17721THY    CM133498   5.711   2.218   7.310  0.5859  0.3221 -0.1035
17721THY    HM133499   5.664   2.245   7.215  2.0209 -0.7051 -1.0218
17721THY    HM233500   5.633   2.255   7.378  0.0355 -0.2134 -0.2702
17721THY    HM333501   5.730   2.111   7.322 -1.0957  1.9916 -0.2607
17721THY    CA633502   5.957   2.229   7.355  0.2137 -0.0365 -0.1625
17721THY    HA633503   5.952   2.121   7.370  0.4665 -2.1156 -0.5115
17722THY      O33504   6.456   3.910   4.161 -0.0395 -0.0380  0.2044
17722THY     HO33505   6.459   3.817   4.135 -1.0482  0.1975  0.0932
17722THY    CA133506   6.459   3.968   4.037  0.1811 -0.9061 -0.2857
17722THY    CA233507   6.402   4.094   4.009  0.1464  0.0000  1.1669
17722THY    CP133508   6.333   4.176   4.120 -0.8419 -0.8469  0.7164
17722THY    HP133509   6.309   4.105   4.200  0.0981 -2.0619 -1.0407
17722THY    CP233510   6.199   4.240   4.080  0.0651 -0.1908 -0.6027
17722THY    HP233511   6.139   4.172   4.018 -0.5023 -0.4073  0.0701
17722THY    HP333512   6.217   4.329   4.018 -0.9817 -1.3890 -1.1710
17722THY    HP433513   6.150   4.276   4.171 -1.2414 -1.4746  1.0420
17722THY    CP333514   6.417   4.284   4.187 -0.2170 -0.0126 -0.0718
17722THY    HP533515   6.417   4.372   4.122  0.4205 -1.0646 -0.8242
17722THY    HP633516   6.520   4.248   4.195  0.2705 -0.9599  1.0333
17722THY    HP733517   6.380   4.322   4.282 -0.5479 -0.1291 -0.0952
17722THY    CA333518   6.416   4.154   3.884 -0.3395  0.5226 -0.5786
17722THY    HA333519   6.383   4.255   3.859  1.3145  0.8000  0.0635
17722THY    CA433520   6.493   4.086   3.785 -0.4499  0.3277 -0.0448
17722THY    HA433521   6.516   4.135   3.691 -0.5720  0.3470  0.0509
17722THY    CA533522   6.553   3.961   3.813 -0.2593 -0.0355 -0.1430
17722THY    CM133523   6.622   3.886   3.709  0.3870  0.2309  0.0196
17722THY    HM133524   6.565   3.797   3.679 -1.8940  0.5494  1.3012
17722THY    HM233525   6.721   3.865   3.749 -0.2250  1.0578 -1.4458
17722THY    HM333526   6.627   3.948   3.618 -1.2295  0.2893  0.2977
17722THY    CA633527   6.530   3.903   3.935 -0.2157 -0.8705 -0.0639
17722THY    HA633528   6.571   3.806   3.959 -0.7356 -2.5590 -0.7370
17723THY      O33529   3.606   3.460   6.472 -0.0541 -0.1420  0.0225
17723THY     HO33530   3.581   3.545   6.432 -0.0332  0.9890  0.5844
17723THY    CA133531   3.738   3.465   6.503  0.3907  0.5846 -0.6171
17723THY    CA233532   3.828   3.393   6.420 -0.9511 -0.3489 -0.2783
17723THY    CP133533   3.770   3.293   6.316  0.7609  0.1581 -0.3845
17723THY    HP133534   3.682   3.341   6.272 -0.2168  2.7342  0.3868
17723THY    CP233535   3.720   3.164   6.378  0.1789  0.4926  0.0292
17723THY    HP233536   3.796   3.110   6.436  0.7422  1.1303  1.4611
17723THY    HP333537   3.689   3.112   6.286 -1.1311  0.2630  1.1764
17723THY    HP433538   3.634   3.190   6.441 -0.0608  0.4627 -0.6684
17723THY    CP333539   3.865   3.264   6.195  0.4609 -0.4210 -0.5201
17723THY    HP533540   3.955   3.209   6.223  0.6401 -0.5317 -0.2836
17723THY    HP633541   3.898   3.365   6.168 -0.5376  2.3422  0.6450
17723THY    HP733542   3.807   3.216   6.115  0.4412 -0.1313 -0.9887
17723THY    CA333543   3.969   3.392   6.440  0.7865  0.2745  1.2312
17723THY    HA333544   4.036   3.338   6.375 -2.6903 -3.0288  0.4560
17723THY    CA433545   4.012   3.461   6.548 -0.4186  0.0313  0.4946
17723THY    HA433546   4.119   3.467   6.564 -0.2911 -0.4019 -0.4518
17723THY    CA533547   3.927   3.541   6.632  0.6779 -0.0129  0.7949
17723THY    CM133548   3.986   3.630   6.741 -0.1134  0.2280  0.3695
17723THY    HM133549   4.091   3.615   6.768  1.0608 -3.6898  0.4804
17723THY    HM233550   3.917   3.626   6.826 -0.5038 -0.0847  0.4044
17723THY    HM333551   3.994   3.731   6.700  0.1260  2.1931  1.1881
17723THY    CA633552   3.791   3.547   6.603  0.4569 -0.4267  0.5209
17723THY    HA633553   3.729   3.597   6.677  2.0829  0.9148  0.5992
17724THY      O33554   2.987   0.599   2.564 -0.6922  0.9990  0.2288
17724THY     HO33555   2.946   0.680   2.530  0.2835  1.5918  0.9872
17724THY    CA133556   3.119   0.625   2.543 -0.1504  0.0722  0.1847
17724THY    CA233557   3.217   0.523   2.533  0.7832 -0.7417  0.1771
17724THY    CP133558   3.180   0.378   2.520  0.8157 -0.5089 -0.2563
17724THY    HP133559   3.084   0.372   2.467  0.4442 -0.1748  2.0586
17724THY    CP233560   3.146   0.324   2.661  0.4056 -0.2576 -0.1296
17724THY    HP233561   3.108   0.222   2.649  1.1623 -0.9735 -0.3362
17724THY    HP333562   3.069   0.385   2.711  0.2053  0.4946 -0.9566
17724THY    HP433563   3.234   0.341   2.724  1.3846 -1.9896  1.6137
17724THY    CP333564   3.268   0.283   2.445  0.3879 -0.2264  0.4066
17724THY    HP533565   3.331   0.335   2.372  0.0969 -1.4563 -0.9020
17724THY    HP633566   3.214   0.208   2.386  1.5849  0.5770 -1.1718
17724THY    HP733567   3.337   0.235   2.516 -0.1246  0.0988  0.1529
17724THY    CA333568   3.347   0.549   2.533 -0.0607 -0.0289 -0.2119
17724THY    HA333569   3.417   0.467   2.522  0.6465 -1.0837  0.5085
17724THY    CA433570   3.395   0.682   2.528 -0.8373 -0.6010 -0.2896
17724THY    HA433571   3.502   0.697   2.526 -0.5416  1.4850 -1.6851
17724THY    CA533572   3.299   0.786   2.548 -1.2154 -0.3173 -0.6763
17724THY    CM133573   3.344   0.931   2.560 -0.5823 -0.6747  0.6378
17724THY    HM133574   3.282   0.997   2.497  0.6989  0.6162  3.2310
17724THY    HM233575   3.447   0.944   2.525 -0.9044 -2.1987 -0.5799
17724THY    HM333576   3.322   0.978   2.657  1.3018 -0.6679  1.6000
17724THY    CA633577   3.162   0.759   2.554 -0.2966 -0.3240  0.2109
17724THY    HA633578   3.091   0.831   2.595  0.3989  0.4352  0.4817
17725THY      O33579   7.616   5.319   3.231  0.2978 -0.1010  0.4455
17725THY     HO33580   7.543   5.308   3.294 -0.0239 -0.7564 -1.5812
17725THY    CA133581   7.543   5.362   3.121 -0.3143 -0.2977 -0.1171
17725THY    CA233582   7.595   5.379   2.990 -0.5852  1.0226  0.5730
17725THY    CP133583   7.739   5.340   2.942  0.0802 -0.2635 -1.1365
17725THY    HP133584   7.793   5.307   3.032  1.2299 -0.5382 -0.0895
17725THY    CP233585   7.814   5.472   2.910  0.4447  0.1245  0.4977
17725THY    HP233586   7.774   5.513   2.817 -0.4018 -0.4474 -1.5097
17725THY    HP333587   7.920   5.446   2.892  0.7244  0.5717  1.3128
17725THY    HP433588   7.804   5.542   2.993  2.5773 -0.0481  1.0784
17725THY    CP333589   7.742   5.234   2.833  0.2974  0.3208  0.2950
17725THY    HP533590   7.680   5.147   2.855  0.3991 -1.7885 -0.3891
17725THY    HP633591   7.840   5.187   2.817 -0.0140 -1.5410  0.1991
17725THY    HP733592   7.701   5.273   2.739  0.1633 -0.1116 -0.8321
17725THY    CA333593   7.508   5.421   2.892  1.0490 -0.2587  0.0304
17725THY    HA333594   7.542   5.424   2.789  1.2171 -0.1808  1.2542
17725THY    CA433595   7.375   5.476   2.929 -0.7086  0.0383 -0.7280
17725THY    HA433596   7.316   5.529   2.854  1.5401  0.8448  3.3816
17725THY    CA533597   7.333   5.475   3.056  0.0428  0.4124 -0.3335
17725THY    CM133598   7.199   5.556   3.089 -0.2635 -0.0899  1.0326
17725THY    HM133599   7.168   5.539   3.193 -0.0098 -0.3445 -1.4685
17725THY    HM233600   7.119   5.536   3.016 -1.4317  0.8789  2.0073
17725THY    HM333601   7.225   5.662   3.082  2.2857  2.6056  0.6959
17725THY    CA633602   7.419   5.416   3.152  0.2630  0.2309 -0.1983
17725THY    HA633603   7.388   5.423   3.256  2.0194  0.9534 -2.1816
17726THY      O33604   1.686   5.757   4.009 -0.1754 -0.0166 -0.2868
17726THY     HO33605   1.625   5.692   4.046 -0.3495  1.0774  0.4519
17726THY    CA133606   1.811   5.706   4.008 -0.3488  0.4813 -0.4772
17726THY    CA233607   1.919   5.790   3.985  0.4653  0.2693 -0.0196
17726THY    CP133608   1.917   5.946   3.977 -0.8434  0.6343 -0.2690
17726THY    HP133609   1.810   5.971   3.975 -0.5849 -0.7189  0.8198
17726THY    CP233610   1.995   6.018   3.870 -0.3926  0.5666 -0.1504
17726THY    HP233611   1.975   6.126   3.878 -2.2010  1.6306 -0.5347
17726THY    HP333612   1.966   5.983   3.770 -2.9398  0.9586  0.6781
17726THY    HP433613   2.104   6.005   3.879 -0.6655  1.0615 -2.6367
17726THY    CP333614   1.972   6.008   4.106  0.1659 -0.3905 -0.4217
17726THY    HP533615   1.952   6.115   4.097  1.2053  2.1343  0.0723
17726THY    HP633616   2.081   6.002   4.118  0.2370 -0.4995  0.4676
17726THY    HP733617   1.933   5.960   4.197  2.9104  0.3886 -1.3990
17726THY    CA333618   2.044   5.723   3.986 -0.1240  0.0086 -0.0585
17726THY    HA333619   2.134   5.784   3.982 -1.3445 -4.9097  1.8983
17726THY    CA433620   2.055   5.584   4.009  0.1013 -0.9034 -0.4648
17726THY    HA433621   2.154   5.539   4.006 -0.9219 -0.0914 -2.9485
17726THY    CA533622   1.942   5.500   4.029  0.0177  0.4622 -0.7206
17726THY    CM133623   1.942   5.357   4.062 -0.6694 -0.0416 -0.2209
17726THY    HM133624   1.845   5.306   4.066  0.0008  1.6696 -1.4533
17726THY    HM233625   1.997   5.355   4.157  1.5392 -1.2390 -0.3166
17726THY    HM333626   1.995   5.298   3.986 -0.4565 -2.4145  2.8249
17726THY    CA633627   1.815   5.565   4.022  0.3303 -0.3325 -0.1721
17726THY    HA633628   1.726   5.503   4.028 -0.4889  2.2187  1.1193
17727THY      O33629   5.534   9.082   4.595 -0.0226  0.2433  0.3313
17727THY     HO33630   5.552   9.176   4.574 -0.2780 -2.0022 -0.0858
17727THY    CA133631   5.614   9.010   4.522 -0.7180 -0.3654  0.0905
17727THY    CA233632   5.687   8.888   4.562  0.4899  0.2437 -0.0054
17727THY    CP133633   5.688   8.839   4.711 -0.2773  0.1054 -0.4874
17727THY    HP133634   5.654   8.922   4.773  0.4594  0.9899 -0.8401
17727THY    CP233635   5.825   8.801   4.767 -0.0793  0.0161  0.0278
17727THY    HP233636   5.836   8.830   4.872  0.9348 -0.1271  0.1818
17727THY    HP333637   5.896   8.868   4.717  0.1629  0.0937 -0.1722
17727THY    HP433638   5.857   8.697   4.758  2.0130 -0.6888  0.6746
17727THY    CP333639   5.596   8.724   4.727 -0.1895 -0.1281 -0.4416
17727THY    HP533640   5.613   8.679   4.826  0.4272 -0.4614 -0.9771
17727THY    HP633641   5.614   8.637   4.663  1.0235 -1.0252  0.4313
17727THY    HP733642   5.495   8.764   4.715 -0.4846  1.2053 -0.7519
17727THY    CA333643   5.763   8.814   4.474  0.4112  0.3968  0.7402
17727THY    HA333644   5.816   8.725   4.507  0.6163 -1.7718  0.0009
17727THY    CA433645   5.784   8.869   4.346 -0.0780 -0.0437  0.3320
17727THY    HA433646   5.850   8.818   4.277  0.1108  0.5734 -0.2649
17727THY    CA533647   5.724   8.989   4.309  0.2553 -0.5428  0.2988
17727THY    CM133648   5.754   9.051   4.182 -0.9882  0.4377 -0.2360
17727THY    HM133649   5.861   9.075   4.182  0.2005 -1.4310 -4.6622
17727THY    HM233650   5.709   9.152   4.178 -2.5577 -1.0132 -0.9424
17727THY    HM333651   5.720   8.993   4.096  1.1186 -1.5057  1.2315
17727THY    CA633652   5.633   9.059   4.397  0.0383  0.3979 -0.0702
17727THY    HA633653   5.580   9.149   4.368  0.3026  0.4116  0.0897
17728THY      O33654   1.577   1.140   7.246 -0.2714 -0.1675  0.5994
17728THY     HO33655   1.588   1.233   7.271  1.6331 -0.0849  0.3958
17728THY    CA133656   1.625   1.075   7.356  0.0416  0.3742  0.1825
17728THY    CA233657   1.685   0.944   7.350  0.0123 -0.1932 -0.4371
17728THY    CP133658   1.684   0.859   7.216  0.0661 -0.6351 -0.0789
17728THY    HP133659   1.604   0.903   7.154  0.3435  0.5094  2.1986
17728THY    CP233660   1.628   0.710   7.245 -0.3605  0.7006 -0.4166
17728THY    HP233661   1.610   0.666   7.147 -0.9786  0.5732  0.1047
17728THY    HP333662   1.536   0.709   7.305 -1.1683 -0.4694  1.0176
17728THY    HP433663   1.711   0.645   7.276 -0.3252 -0.6334 -1.0234
17728THY    CP333664   1.817   0.860   7.139 -0.1720  0.1685 -0.2405
17728THY    HP533665   1.890   0.797   7.190 -0.1189  0.7222  0.2599
17728THY    HP633666   1.847   0.964   7.152 -1.9455 -0.2693  0.3712
17728THY    HP733667   1.804   0.840   7.032 -0.1544  0.4928 -2.1245
17728THY    CA333668   1.726   0.888   7.473  0.5189 -0.3277 -0.1288
17728THY    HA333669   1.757   0.784   7.469 -0.5928  1.7973 -0.5935
17728THY    CA433670   1.697   0.946   7.596 -0.2432 -0.7858  0.4594
17728THY    HA433671   1.721   0.898   7.691 -0.1469 -1.6302 -1.2543
17728THY    CA533672   1.640   1.075   7.598  0.3014 -0.4487  0.4671
17728THY    CM133673   1.622   1.151   7.723 -0.1056 -0.5473  0.4227
17728THY    HM133674   1.688   1.108   7.799 -0.0524 -0.6866  0.2574
17728THY    HM233675   1.519   1.152   7.760  0.4850  1.2040  0.0438
17728THY    HM333676   1.656   1.256   7.721  3.7547  0.4550 -0.6733
17728THY    CA633677   1.604   1.135   7.476  0.1154 -0.6270 -1.1822
17728THY    HA633678   1.572   1.238   7.489  1.5055  1.0879 -0.9266
17729THY      O33679   3.075   4.380   4.043 -0.5679  0.5065 -0.0502
17729THY     HO33680   3.038   4.295   4.071  1.5009  1.5610 -0.6691
17729THY    CA133681   2.986   4.464   4.097  0.0339  0.3673 -0.1787
17729THY    CA233682   3.020   4.591   4.119 -0.2926 -0.9275 -0.7141
17729THY    CP133683   3.157   4.647   4.076  0.7061 -0.3784  0.4533
17729THY    HP133684   3.188   4.584   3.991  2.1053  2.4188 -2.9550
17729THY    CP233685   3.254   4.630   4.187  0.1271 -0.0749  0.2755
17729THY    HP233686   3.212   4.629   4.287  1.3213  0.4500 -0.7600
17729THY    HP333687   3.331   4.709   4.191  0.3106  0.0051  0.0944
17729THY    HP433688   3.308   4.535   4.180 -0.4758  0.7928 -0.1353
17729THY    CP333689   3.155   4.791   4.028  0.2088  0.4805 -0.1891
17729THY    HP533690   3.177   4.854   4.115 -0.3122  1.0296 -0.7485
17729THY    HP633691   3.066   4.831   3.979  1.2577 -0.3400  1.2206
17729THY    HP733692   3.237   4.816   3.960  0.2226  1.3835  2.5535
17729THY    CA333693   2.919   4.679   4.166  0.0376  0.8404 -0.1978
17729THY    HA333694   2.943   4.785   4.164  0.3894  1.8033 -0.2510
17729THY    CA433695   2.803   4.629   4.213  0.8249  0.2665  0.0952
17729THY    HA433696   2.733   4.701   4.256  2.3220 -0.2487  1.9334
17729THY    CA533697   2.782   4.493   4.219 -0.8531  0.3032 -0.1626
17729THY    CM133698   2.660   4.422   4.288  0.1396  0.1526  0.2298
17729THY    HM133699   2.678   4.314   4.296 -2.3246  3.3739 -0.1207
17729THY    HM233700   2.570   4.434   4.226 -0.9710  1.9606  1.9677
17729THY    HM333701   2.628   4.462   4.385  1.0820  0.7527 -0.4276
17729THY    CA633702   2.875   4.414   4.162  0.0934  0.2342  0.4753
17729THY    HA633703   2.852   4.308   4.156 -0.8119  0.8405  0.6325
17730THY      O33704   1.927   8.199   3.344  0.3559 -0.0028  0.6900
17730THY     HO33705   1.954   8.283   3.387  0.4707  3.6516 -1.0188
17730THY    CA133706   2.018   8.102   3.367  0.6308  0.5560  0.4533
17730THY    CA233707   1.977   7.972   3.405 -0.2021 -0.1115  0.3918
17730THY    CP133708   1.833   7.947   3.433  1.4322  0.4439  0.5437
17730THY    HP133709   1.760   8.010   3.382 -0.5691  2.2979 -0.1859
17730THY    CP233710   1.791   7.977   3.576  0.1187  0.1107  0.1857
17730THY    HP233711   1.681   7.977   3.582  0.1527  1.1426  1.6009
17730THY    HP333712   1.829   8.075   3.607 -0.2824 -3.2210  1.5246
17730THY    HP433713   1.827   7.905   3.651 -2.8283  0.3319 -1.2089
17730THY    CP333714   1.788   7.811   3.383  0.3322  0.4884 -0.3714
17730THY    HP533715   1.849   7.724   3.408  0.6289 -0.6165 -0.5008
17730THY    HP633716   1.807   7.820   3.276  4.0250  1.1743  2.0559
17730THY    HP733717   1.682   7.790   3.402  0.0038  1.3759  1.7357
17730THY    CA333718   2.081   7.880   3.431  0.5213 -0.0251  0.1573
17730THY    HA333719   2.045   7.788   3.476 -0.8128 -0.5473  0.3970
17730THY    CA433720   2.220   7.916   3.421 -0.6746  0.5303  0.1939
17730THY    HA433721   2.298   7.844   3.446 -2.8453  0.7254 -2.2526
17730THY    CA533722   2.244   8.045   3.372 -0.3898  0.0200  0.5141
17730THY    CM133723   2.390   8.087   3.353 -0.0475 -0.8306 -0.2635
17730THY    HM133724   2.417   8.117   3.251  3.6940  0.1234  0.1165
17730THY    HM233725   2.462   8.005   3.358 -0.5657  0.5889 -0.6685
17730THY    HM333726   2.419   8.162   3.428 -0.9347 -0.9535  0.2175
17730THY    CA633727   2.141   8.132   3.339 -0.1149  0.0486 -0.1655
17730THY    HA633728   2.166   8.226   3.293  0.3810  0.2406 -0.2005
17731THY      O33729   8.633   1.903   4.371  0.1348 -0.1897  0.4500
17731THY     HO33730   8.578   1.944   4.440 -0.2725 -1.5631  2.3138
17731THY    CA133731   8.546   1.831   4.295  0.3349  0.5607  0.0678
17731THY    CA233732   8.599   1.740   4.204 -0.3583 -0.2542 -0.2163
17731THY    CP133733   8.748   1.719   4.178 -0.2698 -1.0208  0.3166
17731THY    HP133734   8.808   1.752   4.264  3.0822 -2.8564 -0.5821
17731THY    CP233735   8.801   1.794   4.065 -0.8199  0.1724  0.2591
17731THY    HP233736   8.747   1.761   3.975  0.3767 -0.1693 -0.8377
17731THY    HP333737   8.901   1.757   4.037 -0.1574  1.1985  1.2108
17731THY    HP433738   8.800   1.903   4.078 -2.1405 -0.2171  0.3052
17731THY    CP333739   8.779   1.565   4.167 -0.0064 -0.7592 -0.0015
17731THY    HP533740   8.769   1.539   4.061  0.3790 -0.6691 -0.5302
17731THY    HP633741   8.705   1.511   4.227 -1.2611 -2.5130 -0.3170
17731THY    HP733742   8.879   1.549   4.210  0.2327 -0.3453  2.2678
17731THY    CA333743   8.508   1.680   4.115  0.3496  0.0597  0.1835
17731THY    HA333744   8.551   1.616   4.038  0.9778 -0.6384  1.3889
17731THY    CA433745   8.375   1.703   4.122 -0.2621 -0.5080 -1.0370
17731THY    HA433746   8.301   1.662   4.055  0.7532 -2.5748  0.3520
17731THY    CA533747   8.325   1.786   4.226  0.8620 -0.2679  1.3453
17731THY    CM133748   8.180   1.810   4.242 -0.6648  0.0192  0.7557
17731THY    HM133749   8.133   1.784   4.338 -0.9172  0.9441  4.1130
17731THY    HM233750   8.114   1.785   4.158 -0.1719  0.0822 -0.8360
17731THY    HM333751   8.179   1.920   4.231  0.5912  1.3269  0.9206
17731THY    CA633752   8.409   1.854   4.317 -0.0326 -0.5646 -0.0963
17731THY    HA633753   8.364   1.920   4.390 -0.9229 -1.9765  0.9263
17732THY      O33754   4.760   3.338   1.862 -0.3243 -0.5410  0.3013
17732THY     HO33755   4.682   3.280   1.872 -0.3068  1.3262  0.5473
17732THY    CA133756   4.846   3.290   1.958  0.8848  0.1032 -0.1722
17732THY    CA233757   4.922   3.376   2.048  0.3839  0.5546  0.5089
17732THY    CP133758   4.922   3.529   2.027 -0.2029 -0.8671 -0.2784
17732THY    HP133759   4.828   3.563   1.981 -0.7796  0.5340  0.1062
17732THY    CP233760   5.035   3.572   1.934  0.1219 -0.1130 -0.5604
17732THY    HP233761   4.996   3.542   1.836 -1.1317  0.2756 -0.2359
17732THY    HP333762   5.130   3.517   1.943 -0.0377  0.1065 -0.8008
17732THY    HP433763   5.049   3.681   1.945  0.2463 -1.0627 -0.4726
17732THY    CP333764   4.929   3.607   2.157  0.0443  0.4981 -0.3051
17732THY    HP533765   5.034   3.618   2.185  0.9953 -1.9435 -2.3382
17732THY    HP633766   4.874   3.565   2.242  0.1530 -0.3848 -2.3125
17732THY    HP733767   4.883   3.707   2.152 -2.5135  1.3240 -1.3505
17732THY    CA333768   5.001   3.322   2.152  0.8310 -0.6207 -0.5650
17732THY    HA333769   5.057   3.379   2.225 -0.6220 -0.7326  1.0791
17732THY    CA433770   5.005   3.181   2.157 -0.2639  0.6862 -0.4294
17732THY    HA433771   5.076   3.129   2.220 -0.8630  0.8529 -1.0545
17732THY    CA533772   4.934   3.100   2.075  0.5158  0.2666 -0.1878
17732THY    CM133773   4.941   2.953   2.096  0.2607  0.5212  0.2435
17732THY    HM133774   4.836   2.924   2.110  0.4797 -0.3925 -1.0962
17732THY    HM233775   4.984   2.913   2.188  0.2371  0.3076 -0.2705
17732THY    HM333776   4.971   2.895   2.008  0.3794 -0.1898  1.3507
17732THY    CA633777   4.848   3.153   1.986  0.0211  0.1470 -0.2277
17732THY    HA633778   4.791   3.089   1.919 -2.7262  1.0327  1.1314
17733THY      O33779   8.676   8.721   3.483  0.2975 -0.4708  0.0481
17733THY     HO33780   8.759   8.698   3.438  2.3603  2.5008  1.0621
17733THY    CA133781   8.680   8.657   3.610  1.2265  0.5367 -0.4524
17733THY    CA233782   8.583   8.674   3.706  0.5376 -0.1121 -0.2083
17733THY    CP133783   8.451   8.754   3.682  0.3542 -0.0912  0.4443
17733THY    HP133784   8.472   8.834   3.610 -2.9466  1.3309  2.8377
17733THY    CP233785   8.409   8.826   3.824  0.4612  0.6185 -0.4041
17733THY    HP233786   8.325   8.888   3.790  0.6499  1.0605  0.0920
17733THY    HP333787   8.481   8.890   3.876  0.2504 -0.5660  0.8256
17733THY    HP433788   8.376   8.752   3.898  0.8947  1.5594  0.3254
17733THY    CP333789   8.335   8.670   3.627  0.5036 -0.0254  0.0634
17733THY    HP533790   8.360   8.639   3.525 -1.5826 -1.1582  1.8424
17733THY    HP633791   8.240   8.725   3.621 -0.1458 -0.8091 -1.1130
17733THY    HP733792   8.326   8.583   3.693  2.5204  1.1341  0.6569
17733THY    CA333793   8.575   8.577   3.812  0.0257 -0.3709 -0.9754
17733THY    HA333794   8.491   8.574   3.881 -0.7579 -1.1478  1.4193
17733THY    CA433795   8.681   8.488   3.833 -0.1728  0.2299 -0.3532
17733THY    HA433796   8.670   8.412   3.909 -3.0414 -1.2454 -1.5542
17733THY    CA533797   8.786   8.485   3.744 -0.1513  0.8293  0.0806
17733THY    CM133798   8.886   8.380   3.760 -0.1757  0.2388  0.3173
17733THY    HM133799   8.900   8.351   3.865  1.1357 -0.2255 -0.8008
17733THY    HM233800   8.975   8.407   3.703 -0.3050  0.2770  0.8318
17733THY    HM333801   8.849   8.292   3.706 -1.0001  1.1903  0.0498
17733THY    CA633802   8.781   8.562   3.624 -0.4270 -0.5259 -0.5352
17733THY    HA633803   8.861   8.557   3.550 -0.8809 -1.1159  0.5137
17734THY      O33804   5.227   0.648   5.068  0.1850 -0.6073 -0.0893
17734THY     HO33805   5.284   0.692   5.133  1.9456 -1.2180 -1.3117
17734THY    CA133806   5.178   0.750   5.004  0.5600  0.3080 -0.8196
17734THY    CA233807   5.048   0.741   4.948  0.2176 -0.3718  0.1365
17734THY    CP133808   4.975   0.606   4.950 -0.2895 -0.0519  0.2286
17734THY    HP133809   5.025   0.527   5.008 -3.1478  2.0535 -0.1715
17734THY    CP233810   4.954   0.560   4.798 -0.1380 -0.6464  0.0590
17734THY    HP233811   4.881   0.478   4.791 -3.3333 -1.4341  2.7689
17734THY    HP333812   5.046   0.513   4.762  0.2010 -0.9538  0.9508
17734THY    HP433813   4.931   0.644   4.731 -1.4466  0.3885  0.5709
17734THY    CP333814   4.834   0.617   5.017 -0.3918  0.4871 -0.7480
17734THY    HP533815   4.777   0.694   4.965  0.2534 -0.9423 -1.1909
17734THY    HP633816   4.843   0.637   5.124 -0.0488  0.0131  1.9929
17734THY    HP733817   4.778   0.525   4.997 -0.2490 -2.3875 -0.3269
17734THY    CA333818   4.989   0.862   4.903  0.5464  0.5185 -0.1811
17734THY    HA333819   4.887   0.856   4.865  0.5880  0.5979 -1.6869
17734THY    CA433820   5.052   0.985   4.916  0.9098  0.0726  0.3126
17734THY    HA433821   4.994   1.070   4.880  0.4632  0.1028  0.0231
17734THY    CA533822   5.186   0.999   4.974  0.0237  0.2415 -0.2596
17734THY    CM133823   5.250   1.133   4.996  0.3350  0.1658 -0.7895
17734THY    HM133824   5.188   1.216   5.032  1.5960  0.0204  0.2485
17734THY    HM233825   5.320   1.154   4.914 -0.4666 -0.3818 -0.2113
17734THY    HM333826   5.317   1.115   5.081  1.4739 -0.0806  1.8244
17734THY    CA633827   5.245   0.879   5.018 -0.7429 -0.5173  1.2606
17734THY    HA633828   5.338   0.880   5.074 -0.1147 -1.5015  0.1718
17735THY      O33829   4.312   4.200   3.632 -0.0101  0.6768  0.3741
17735THY     HO33830   4.295   4.180   3.726 -1.0768  0.3590 -0.2804
17735THY    CA133831   4.364   4.099   3.566 -0.2290 -0.2883  0.6405
17735THY    CA233832   4.392   4.107   3.426  0.7068 -0.8833  0.6161
17735THY    CP133833   4.348   4.227   3.342 -0.3310  0.1614 -0.1471
17735THY    HP133834   4.311   4.304   3.411 -0.2838 -0.5188  0.4951
17735THY    CP233835   4.232   4.198   3.256  0.5056  0.3810 -0.5369
17735THY    HP233836   4.243   4.108   3.195  0.1826  0.5827 -0.7167
17735THY    HP333837   4.213   4.286   3.192  0.8198  0.2083 -0.5961
17735THY    HP433838   4.152   4.173   3.327  1.3857  1.5510 -0.1017
17735THY    CP333839   4.475   4.295   3.272  0.3227 -0.3351  0.6854
17735THY    HP533840   4.539   4.218   3.229  1.1256  1.3583  0.3696
17735THY    HP633841   4.530   4.334   3.359  1.2859 -0.3975 -0.4783
17735THY    HP733842   4.455   4.381   3.206  1.0109 -1.7535 -0.1988
17735THY    CA333843   4.446   3.999   3.357  0.2907  0.1679  0.0597
17735THY    HA333844   4.455   4.005   3.249 -4.2714 -0.3910  0.4651
17735THY    CA433845   4.477   3.884   3.431 -0.3202 -0.2660 -0.1706
17735THY    HA433846   4.521   3.801   3.376  1.6015  0.3669  0.3690
17735THY    CA533847   4.450   3.877   3.567  0.2947  0.1937 -0.4216
17735THY    CM133848   4.484   3.753   3.637  0.5969 -0.7997 -0.5112
17735THY    HM133849   4.471   3.769   3.744 -2.2250 -1.5319  3.6840
17735THY    HM233850   4.587   3.738   3.601  0.3840 -1.6582  0.0065
17735THY    HM333851   4.419   3.669   3.611 -1.6308  1.9093  0.2579
17735THY    CA633852   4.385   3.979   3.637 -0.6489  0.4381  0.3677
17735THY    HA633853   4.367   3.973   3.744 -1.0715  0.3645  0.2979
17736THY      O33854   8.468   5.026   4.321  0.1060 -0.6428 -0.3781
17736THY     HO33855   8.426   4.943   4.293 -0.8795 -1.6088  0.4320
17736THY    CA133856   8.421   5.111   4.224  0.6000 -0.8743  0.0524
17736THY    CA233857   8.503   5.163   4.128 -0.7062  0.1030 -0.5137
17736THY    CP133858   8.650   5.118   4.117  0.4058  0.0597  0.5542
17736THY    HP133859   8.690   5.103   4.218 -0.1037 -0.1303 -3.1130
17736THY    CP233860   8.754   5.213   4.056  0.0156 -0.5152  0.5816
17736THY    HP233861   8.717   5.254   3.961 -2.9915 -0.2379 -1.1803
17736THY    HP333862   8.852   5.164   4.052 -0.5024 -0.5875 -0.4807
17736THY    HP433863   8.757   5.300   4.122 -3.0522  0.7821 -0.1806
17736THY    CP333864   8.655   4.971   4.070  0.2327 -0.1487  0.1316
17736THY    HP533865   8.748   4.921   4.099 -0.9186  0.1031 -1.9438
17736THY    HP633866   8.630   4.956   3.964  0.6981 -0.5705  1.9985
17736THY    HP733867   8.575   4.913   4.117  0.7059  0.2670 -0.1976
17736THY    CA333868   8.446   5.256   4.034 -0.4030 -0.6529 -0.4757
17736THY    HA333869   8.502   5.309   3.958 -2.0926  0.0564  2.5564
17736THY    CA433870   8.310   5.287   4.037  0.1021 -0.1733 -0.4497
17736THY    HA433871   8.275   5.362   3.967  1.3964  1.7959  2.1338
17736THY    CA533872   8.225   5.225   4.129  0.3943  0.2347 -0.3518
17736THY    CM133873   8.080   5.239   4.124  0.4919 -0.1127 -0.0121
17736THY    HM133874   8.039   5.326   4.071 -2.7211  0.0938 -1.2426
17736THY    HM233875   8.043   5.258   4.226  0.3574 -0.2820  0.6501
17736THY    HM333876   8.032   5.152   4.078  0.4742 -0.3154  0.1045
17736THY    CA633877   8.283   5.133   4.214 -0.4689 -0.6200  0.0585
17736THY    HA633878   8.219   5.076   4.280 -0.1350  0.1962  0.6028
17737THY      O33879   6.684   6.557   5.405 -0.3694  0.2013 -0.2649
17737THY     HO33880   6.775   6.583   5.430 -0.2179  0.6332 -1.1930
17737THY    CA133881   6.670   6.574   5.278  0.1293  0.3372 -0.0596
17737THY    CA233882   6.548   6.551   5.219 -0.4713 -0.6825  0.2293
17737THY    CP133883   6.430   6.493   5.297 -0.7044 -0.2806  0.0793
17737THY    HP133884   6.461   6.443   5.390 -0.2048  0.1541  1.1476
17737THY    CP233885   6.345   6.381   5.230  0.7844 -0.9820 -0.2648
17737THY    HP233886   6.410   6.300   5.197  2.0305  0.3745  0.1250
17737THY    HP333887   6.298   6.411   5.136 -0.9828 -0.3114 -0.8495
17737THY    HP433888   6.276   6.342   5.305  1.5127 -0.1225  0.0546
17737THY    CP333889   6.341   6.610   5.350  0.0545  0.0109 -0.1581
17737THY    HP533890   6.414   6.664   5.413  0.1174  0.8608 -1.2128
17737THY    HP633891   6.257   6.587   5.416 -0.7961 -0.5378  1.2495
17737THY    HP733892   6.313   6.664   5.259  2.8639 -1.3318 -0.7327
17737THY    CA333893   6.533   6.565   5.085 -0.6450  0.9607 -0.1181
17737THY    HA333894   6.437   6.563   5.035  0.1035 -0.5391 -1.3819
17737THY    CA433895   6.648   6.605   5.008 -0.2448 -0.3069  0.0501
17737THY    HA433896   6.635   6.622   4.902 -0.2660 -0.6438 -1.8056
17737THY    CA533897   6.780   6.616   5.069  0.2541  0.8054  0.8570
17737THY    CM133898   6.910   6.637   4.995 -0.5522  0.7523 -0.4117
17737THY    HM133899   6.970   6.719   5.034  0.0195 -0.6663 -0.1137
17737THY    HM233900   6.882   6.638   4.889  0.3407  0.5043 -0.5330
17737THY    HM333901   6.975   6.551   5.016 -1.6144  0.3420 -1.3342
17737THY    CA633902   6.784   6.603   5.207 -0.6279  0.2741 -0.1059
17737THY    HA633903   6.881   6.608   5.256 -0.7566  0.5272 -0.1163
17738THY      O33904   3.255   3.613   4.973 -0.3837  0.0952  0.4953
17738THY     HO33905   3.314   3.671   4.921  1.2167  1.1650 -0.1079
17738THY    CA133906   3.155   3.600   4.887  0.5187  0.7045  0.4439
17738THY    CA233907   3.038   3.526   4.914 -0.0594  0.6801 -0.4338
17738THY    CP133908   3.023   3.453   5.049 -0.1309 -0.1807 -0.3547
17738THY    HP133909   3.122   3.410   5.070  0.8483 -0.4840  1.6588
17738THY    CP233910   2.925   3.338   5.041  0.1089 -0.2638 -0.4515
17738THY    HP233911   2.827   3.369   5.004  1.3015 -2.5535  0.8415
17738THY    HP333912   2.905   3.304   5.143 -1.0729 -0.4942 -0.4950
17738THY    HP433913   2.963   3.271   4.963  0.7841 -1.2944  1.0638
17738THY    CP333914   2.979   3.551   5.165  0.0141 -0.7603 -0.3598
17738THY    HP533915   2.920   3.511   5.249  0.0938 -0.6198 -0.1860
17738THY    HP633916   2.899   3.609   5.117 -0.8976 -0.6074 -1.4710
17738THY    HP733917   3.064   3.609   5.202 -0.5617  1.8626 -1.0652
17738THY    CA333918   2.942   3.511   4.809 -0.1178  0.0251  0.3202
17738THY    HA333919   2.860   3.440   4.818 -0.7748  1.2400  1.1994
17738THY    CA433920   2.950   3.582   4.694 -0.4610 -0.5699 -0.0229
17738THY    HA433921   2.875   3.559   4.619  0.2811 -0.6458 -2.5161
17738THY    CA533922   3.061   3.667   4.675 -0.3280 -0.1309  0.2282
17738THY    CM133923   3.079   3.744   4.554  0.4449 -0.1442 -0.6783
17738THY    HM133924   3.004   3.726   4.476 -0.8785  1.2839 -1.6682
17738THY    HM233925   3.176   3.716   4.511 -0.9466 -3.0606 -1.4363
17738THY    HM333926   3.089   3.848   4.587 -1.9811  0.7762 -0.6839
17738THY    CA633927   3.168   3.670   4.770 -0.4625 -0.5526 -0.4096
17738THY    HA633928   3.257   3.730   4.755 -0.2055  1.2773 -0.2587
17739THY      O33929   4.506   6.264   4.003  0.3669  0.4366 -0.1428
17739THY     HO33930   4.436   6.198   4.023 -0.9155 -1.6477  0.4807
17739THY    CA133931   4.461   6.380   4.066  0.5850 -0.3429  0.5117
17739THY    CA233932   4.540   6.499   4.063  0.5040  0.6625 -0.1782
17739THY    CP133933   4.669   6.505   3.973 -0.4009  0.8210  0.9034
17739THY    HP133934   4.672   6.412   3.915 -0.9845 -1.6757  2.3527
17739THY    CP233935   4.799   6.526   4.054  0.0266 -0.4655  0.2727
17739THY    HP233936   4.823   6.444   4.122 -0.3193  3.0751  2.8517
17739THY    HP333937   4.792   6.617   4.115 -1.2820 -0.7309  0.3737
17739THY    HP433938   4.887   6.522   3.988  0.5171  0.1342  0.8317
17739THY    CP333939   4.628   6.603   3.865  0.0820 -0.1123 -0.0304
17739THY    HP533940   4.576   6.696   3.891  0.2055 -0.0397  0.0192
17739THY    HP633941   4.555   6.560   3.795 -1.1562  0.3950  1.1787
17739THY    HP733942   4.715   6.627   3.802  0.7153  0.4705 -0.7541
17739THY    CA333943   4.500   6.611   4.132  0.5210 -0.1432 -1.0936
17739THY    HA333944   4.562   6.700   4.131  0.9740  1.7977 -1.3441
17739THY    CA433945   4.380   6.606   4.203  0.5993  0.4443  0.0570
17739THY    HA433946   4.354   6.693   4.263  1.4011  1.7580 -0.5909
17739THY    CA533947   4.307   6.490   4.213 -0.1095 -1.1190  0.1268
17739THY    CM133948   4.186   6.493   4.311 -0.8006 -0.8204  0.0667
17739THY    HM133949   4.192   6.394   4.357 -0.0667 -3.7039 -1.3224
17739THY    HM233950   4.092   6.514   4.259 -0.9784 -0.4644  0.1733
17739THY    HM333951   4.190   6.576   4.383 -0.5094 -2.7991  1.8383
17739THY    CA633952   4.344   6.374   4.143  0.0557  0.2816  0.6557
17739THY    HA633953   4.289   6.280   4.146 -0.1027 -0.8890  0.6916
17740THY      O33954   4.690   8.172   5.173 -0.3561  0.3707  0.2501
17740THY     HO33955   4.642   8.254   5.152  2.2527 -0.3398  1.7135
17740THY    CA133956   4.607   8.096   5.242 -0.1606 -0.4180  0.5180
17740THY    CA233957   4.633   7.957   5.257 -0.2018  0.2512  0.2580
17740THY    CP133958   4.764   7.892   5.197  0.0915 -0.2812  0.4889
17740THY    HP133959   4.833   7.970   5.162  0.3467  0.9341  0.8274
17740THY    CP233960   4.743   7.778   5.100 -0.0755 -0.2318 -0.2947
17740THY    HP233961   4.842   7.734   5.082  1.0526  1.2571  1.4844
17740THY    HP333962   4.698   7.815   5.007 -0.1772  0.1512  0.5903
17740THY    HP433963   4.672   7.710   5.149 -0.2099  2.3258  1.5074
17740THY    CP333964   4.841   7.827   5.312  0.0574 -0.2428 -0.5314
17740THY    HP533965   4.948   7.841   5.292  0.1501  0.7560  0.2422
17740THY    HP633966   4.818   7.724   5.339  0.2857  1.9836 -0.0465
17740THY    HP733967   4.830   7.889   5.402  0.3384 -1.2538  1.0635
17740THY    CA333968   4.541   7.882   5.331 -1.1013 -0.8326  0.5607
17740THY    HA333969   4.568   7.782   5.365 -2.8451  0.2885  0.4164
17740THY    CA433970   4.423   7.936   5.382  0.5634  0.8482 -0.0972
17740THY    HA433971   4.353   7.877   5.441  1.0144  1.8481  0.3253
17740THY    CA533972   4.397   8.069   5.363 -0.0035 -0.8710 -0.8909
17740THY    CM133973   4.283   8.137   5.433  0.0880 -0.2648 -0.0239
17740THY    HM133974   4.195   8.073   5.428 -0.2483 -1.8004  0.5128
17740THY    HM233975   4.249   8.234   5.395  0.7926 -1.4522 -0.2117
17740THY    HM333976   4.299   8.153   5.540  0.7173 -0.5946  1.9006
17740THY    CA633977   4.492   8.152   5.300  0.2502 -0.2191 -0.3729
17740THY    HA633978   4.473   8.259   5.290 -1.7765 -0.3759 -0.7040
17741THY      O33979   0.564   4.889   6.127  0.5585  0.0890 -0.1289
17741THY     HO33980   0.576   4.792   6.133 -1.1973  1.1753 -0.3205
17741THY    CA133981   0.450   4.904   6.203 -0.1884  0.2529  0.4144
17741THY    CA233982   0.393   5.029   6.238 -0.7871 -0.2864 -0.0820
17741THY    CP133983   0.478   5.160   6.209 -0.2076 -0.2427  0.0627
17741THY    HP133984   0.564   5.148   6.142 -0.1080 -0.7471  2.8067
17741THY    CP233985   0.522   5.234   6.342 -0.6749  0.7260 -0.4387
17741THY    HP233986   0.560   5.332   6.314 -0.0409  0.1391 -0.8460
17741THY    HP333987   0.606   5.188   6.396 -0.7051  0.9542 -0.2310
17741THY    HP433988   0.432   5.247   6.405 -1.7543 -0.9245  0.3534
17741THY    CP333989   0.393   5.258   6.134 -0.3549 -0.5192 -0.2247
17741THY    HP533990   0.342   5.224   6.044  2.2263 -2.9534  1.8747
17741THY    HP633991   0.443   5.352   6.106 -0.9468 -0.2074  0.1940
17741THY    HP733992   0.311   5.281   6.203 -1.6686 -2.4982  1.4192
17741THY    CA333993   0.266   5.024   6.303 -0.2380 -0.1611  0.6999
17741THY    HA333994   0.211   5.111   6.336 -0.6972  1.8757 -0.2902
17741THY    CA433995   0.204   4.897   6.331  0.0681 -0.9932 -0.1663
17741THY    HA433996   0.107   4.895   6.380  0.4450 -0.0981  1.3859
17741THY    CA533997   0.260   4.777   6.291 -0.8597 -0.1913 -0.3267
17741THY    CM133998   0.183   4.651   6.315 -0.0825  0.4686  0.0237
17741THY    HM133999   0.099   4.661   6.386  0.8975  2.3311 -3.4535
17741THY    HM234000   0.248   4.570   6.350  0.9179  0.8256  0.9625
17741THY    HM334001   0.141   4.618   6.219 -0.1834  0.7497 -0.6816
17741THY    CA634002   0.383   4.783   6.221  0.2890  0.1399 -0.1320
17741THY    HA634003   0.418   4.688   6.184 -2.1489 -1.5600 -0.4476
17742THY      O34004   3.747   5.935   5.550 -0.3868 -0.0012  0.7158
17742THY     HO34005   3.812   5.992   5.506 -0.0805 -1.4859 -0.7357
17742THY    CA134006   3.806   5.886   5.664 -0.0225  0.2862 -1.6192
17742THY    CA234007   3.780   5.761   5.716  0.0370 -0.0341 -0.3446
17742THY    CP134008   3.659   5.682   5.657 -0.7527  0.2413 -0.6054
17742THY    HP134009   3.660   5.692   5.548  0.2591  0.1927 -1.1423
17742THY    CP234010   3.531   5.738   5.719 -0.1542  0.5036  0.1282
17742THY    HP234011   3.447   5.671   5.694 -1.8923 -2.8478  3.2090
17742THY    HP334012   3.508   5.830   5.664  3.4630 -2.3489 -0.4565
17742THY    HP434013   3.552   5.769   5.822  1.6382 -0.0973  1.0490
17742THY    CP334014   3.691   5.531   5.676  0.0383 -0.7221  0.5041
17742THY    HP534015   3.669   5.490   5.776 -0.9417 -1.4672 -0.8987
17742THY    HP634016   3.797   5.513   5.653  0.3388  1.8774 -1.7604
17742THY    HP734017   3.625   5.480   5.605 -0.6801  0.2952 -0.0285
17742THY    CA334018   3.840   5.725   5.839  0.0181  0.4624  0.6125
17742THY    HA334019   3.823   5.634   5.896  2.4954 -1.4861 -1.2392
17742THY    CA434020   3.939   5.806   5.896 -0.3424 -0.0579  0.0678
17742THY    HA434021   3.998   5.761   5.975  0.0367 -0.8989 -0.9542
17742THY    CA534022   3.956   5.941   5.855 -0.2078  0.4537  0.4470
17742THY    CM134023   4.048   6.037   5.928 -0.1596 -0.0649  0.1578
17742THY    HM134024   4.066   6.116   5.855  2.2018  1.3998  1.0633
17742THY    HM234025   4.134   5.987   5.973 -0.2337  2.1159  1.8267
17742THY    HM334026   4.006   6.076   6.022 -1.2576 -0.6379  0.4068
17742THY    CA634027   3.885   5.981   5.741  0.5858  0.1140 -0.1959
17742THY    HA634028   3.880   6.087   5.715 -0.1362  0.8405 -0.0440
17743THY      O34029   4.143   1.245   2.467  0.0220  0.2561  0.0992
17743THY     HO34030   4.167   1.331   2.429 -0.1801 -1.1157 -0.4323
17743THY    CA134031   4.210   1.243   2.584  0.3731 -0.0752 -0.0178
17743THY    CA234032   4.160   1.174   2.704  0.0708  0.2821 -0.1706
17743THY    CP134033   4.037   1.082   2.686 -0.3843 -0.2877  0.2794
17743THY    HP134034   4.020   1.060   2.580 -0.9106 -0.5366  1.8009
17743THY    CP234035   3.907   1.158   2.727  0.0200  0.0048 -0.1231
17743THY    HP234036   3.835   1.082   2.761 -0.5446  0.4779  0.6020
17743THY    HP334037   3.861   1.210   2.642 -1.7256 -0.1350 -1.7879
17743THY    HP434038   3.926   1.232   2.806 -1.4181 -2.9079  3.6911
17743THY    CP334039   4.055   0.947   2.758 -0.7184  0.0113  0.0144
17743THY    HP534040   4.148   0.902   2.722  0.5246  0.7671  1.8703
17743THY    HP634041   3.975   0.875   2.735  2.0667 -1.8370 -2.8036
17743THY    HP734042   4.060   0.963   2.866  0.6264  0.3457 -2.1801
17743THY    CA334043   4.213   1.194   2.828 -0.0200 -0.3429  0.8438
17743THY    HA334044   4.159   1.163   2.916 -0.3242  0.4345  3.3724
17743THY    CA434045   4.340   1.271   2.835  1.1522 -0.5671  0.3466
17743THY    HA434046   4.397   1.293   2.925  0.9386 -0.7947  1.9787
17743THY    CA534047   4.394   1.328   2.718  0.7410  0.0579 -0.5669
17743THY    CM134048   4.520   1.411   2.728 -0.0046  0.2677  0.2782
17743THY    HM134049   4.541   1.455   2.827  3.4158  0.1679 -0.8513
17743THY    HM234050   4.522   1.485   2.647  0.8874 -0.1558 -0.1943
17743THY    HM334051   4.597   1.340   2.698 -0.9738  0.3499 -0.8340
17743THY    CA634052   4.326   1.324   2.598 -0.3313 -0.3333 -0.1577
17743THY    HA634053   4.367   1.377   2.512 -0.1480  1.0675  2.1214
17744THY      O34054   4.769   6.194   4.090 -0.4234  0.1216 -0.2085
17744THY     HO34055   4.674   6.216   4.090 -0.4397 -0.2218 -0.2667
17744THY    CA134056   4.785   6.131   4.209 -0.0085 -0.0428  0.0596
17744THY    CA234057   4.909   6.100   4.270  0.1141  1.2525 -0.4017
17744THY    CP134058   5.041   6.108   4.186  0.2141 -0.0572 -0.1851
17744THY    HP134059   5.026   6.164   4.094  0.0098 -0.3321 -0.6875
17744THY    CP234060   5.077   5.965   4.134 -0.0306  0.0825  0.4963
17744THY    HP234061   5.157   5.972   4.059  0.6820  0.8591  0.8909
17744THY    HP334062   4.988   5.911   4.101 -0.6257  1.7682  0.3819
17744THY    HP434063   5.133   5.916   4.215  0.2434 -0.4419 -0.0728
17744THY    CP334064   5.145   6.186   4.261 -0.6705 -0.4357  0.4299
17744THY    HP534065   5.230   6.203   4.194  0.7707  1.3202  0.4634
17744THY    HP634066   5.177   6.123   4.345 -2.2012 -0.5548 -0.5563
17744THY    HP734067   5.115   6.284   4.299 -0.6353  2.5249 -0.5959
17744THY    CA334068   4.914   6.067   4.407  0.3153 -0.2390 -0.4594
17744THY    HA334069   5.004   6.043   4.462 -0.1471  0.5035 -0.4958
17744THY    CA434070   4.789   6.061   4.478  1.2142 -0.2850  0.2919
17744THY    HA434071   4.788   6.036   4.584  1.2638 -0.3707 -0.0839
17744THY    CA534072   4.667   6.081   4.416  0.0964 -0.0013  0.0057
17744THY    CM134073   4.536   6.049   4.483  0.9527 -0.1608 -0.4644
17744THY    HM134074   4.508   5.946   4.456 -1.0966  0.3224 -0.0783
17744THY    HM234075   4.461   6.123   4.454 -0.2546  1.4783 -0.9850
17744THY    HM334076   4.544   6.045   4.592  0.1918 -0.0433  0.8242
17744THY    CA634077   4.669   6.105   4.281 -1.0406 -0.2713  0.0348
17744THY    HA634078   4.575   6.121   4.229 -0.3846 -0.9999  1.7187
17745THY      O34079   5.434   5.141   7.413 -0.0469 -0.2974 -0.4427
17745THY     HO34080   5.339   5.120   7.407 -0.3791  2.3098 -0.0282
17745THY    CA134081   5.440   5.274   7.440 -0.0889  0.3155  0.7530
17745THY    CA234082   5.558   5.333   7.481 -0.3121  0.3336  0.8250
17745THY    CP134083   5.685   5.255   7.510  0.0676 -0.0969  0.2508
17745THY    HP134084   5.668   5.146   7.511  0.8309 -1.2720  0.0928
17745THY    CP234085   5.736   5.285   7.654 -0.7475 -0.1678 -0.9383
17745THY    HP234086   5.799   5.375   7.653 -1.7591  0.8384 -0.1954
17745THY    HP334087   5.809   5.204   7.669  1.8397 -1.9683  0.9023
17745THY    HP434088   5.660   5.293   7.732 -0.5011 -0.1143  1.5291
17745THY    CP334089   5.800   5.292   7.406  0.5461 -0.1923  0.0828
17745THY    HP534090   5.819   5.399   7.412 -0.6634  0.0065  0.3020
17745THY    HP634091   5.780   5.282   7.299  1.7021 -0.4123 -0.0931
17745THY    HP734092   5.896   5.243   7.428  0.3619  0.0336 -0.1864
17745THY    CA334093   5.562   5.470   7.508 -0.9743 -0.0079  0.3960
17745THY    HA334094   5.652   5.510   7.553 -2.1487  3.4276 -0.4666
17745THY    CA434095   5.456   5.550   7.477  1.1079 -0.3273 -0.0761
17745THY    HA434096   5.455   5.658   7.491 -0.5497 -1.0375  0.0345
17745THY    CA534097   5.334   5.492   7.445 -0.6897  0.1080 -0.6655
17745THY    CM134098   5.205   5.569   7.446 -1.4615  0.1349  0.3910
17745THY    HM134099   5.200   5.653   7.375  0.4012  1.4144  1.6594
17745THY    HM234100   5.188   5.615   7.543  0.6858 -1.0192  3.9968
17745THY    HM334101   5.117   5.508   7.422 -1.9031 -1.5099  1.6112
17745THY    CA634102   5.324   5.356   7.425 -0.1993  0.5391  0.4434
17745THY    HA634103   5.235   5.298   7.402 -0.7843 -3.8316  2.6889
17746THY      O34104   2.120   8.781   5.516  0.6440  0.2269 -0.1642
17746THY     HO34105   2.078   8.704   5.474  0.8337 -1.8935  0.8196
17746THY    CA134106   2.239   8.778   5.453 -0.2805 -0.1691  0.4760
17746THY    CA234107   2.358   8.821   5.531 -0.7442 -0.2253 -0.4017
17746THY    CP134108   2.353   8.865   5.677  0.3156  0.6520 -0.5312
17746THY    HP134109   2.258   8.915   5.699  0.6872  1.6202 -0.2217
17746THY    CP234110   2.453   8.984   5.695 -0.2978 -0.6108  0.2917
17746THY    HP234111   2.436   9.057   5.616 -1.5716 -1.6915 -1.1026
17746THY    HP334112   2.557   8.956   5.714 -0.9820 -0.5166 -2.5926
17746THY    HP434113   2.422   9.035   5.787  1.7799  1.0057 -1.1625
17746THY    CP334114   2.385   8.754   5.776 -0.2700  0.1584  0.6104
17746THY    HP534115   2.383   8.799   5.876 -2.0091  1.0407 -1.2529
17746THY    HP634116   2.484   8.713   5.754 -0.5061  2.6609 -1.6041
17746THY    HP734117   2.301   8.684   5.768 -0.6224 -0.9467  1.1363
17746THY    CA334118   2.481   8.799   5.464 -0.5073 -0.1454 -0.3604
17746THY    HA334119   2.575   8.827   5.511 -1.7635 -0.0050  4.4620
17746THY    CA434120   2.476   8.757   5.323 -0.2317 -0.6221  0.8788
17746THY    HA434121   2.570   8.762   5.268  0.1875  0.0462  0.5603
17746THY    CA534122   2.359   8.743   5.253 -0.0929 -0.1180  0.0343
17746THY    CM134123   2.352   8.722   5.105  0.5963 -0.0021  0.1279
17746THY    HM134124   2.412   8.635   5.075  1.2394  1.8551 -0.1081
17746THY    HM234125   2.396   8.802   5.045 -0.1570 -2.0884 -0.9520
17746THY    HM334126   2.247   8.714   5.074  0.5815 -0.1254  0.7301
17746THY    CA634127   2.237   8.753   5.318 -0.5624 -0.6491  0.0924
17746THY    HA634128   2.140   8.733   5.274 -0.5898 -1.2687  1.5081
17747THY      O34129   2.050   2.633   2.952  0.2348  0.6081  0.1617
17747THY     HO34130   2.044   2.593   2.863  1.7385  0.7559 -0.4425
17747THY    CA134131   2.175   2.692   2.960 -0.2367  0.1076 -0.2503
17747THY    CA234132   2.288   2.660   2.880  0.0948  0.1733 -0.9066
17747THY    CP134133   2.279   2.564   2.765  0.0200  0.2111  0.2513
17747THY    HP134134   2.178   2.521   2.759  0.6007  0.1070 -1.1580
17747THY    CP234135   2.354   2.438   2.780 -0.7735  0.0996  0.8127
17747THY    HP234136   2.316   2.389   2.871  0.9291 -0.7700 -2.3677
17747THY    HP334137   2.461   2.459   2.783 -0.5284 -3.5426  0.6233
17747THY    HP434138   2.330   2.370   2.698 -1.0711  0.5624  0.3531
17747THY    CP334139   2.320   2.639   2.640  0.0556 -0.0186 -0.3684
17747THY    HP534140   2.422   2.681   2.644 -0.3293  0.3052  0.5729
17747THY    HP634141   2.259   2.725   2.610  2.7754 -1.7309  1.1411
17747THY    HP734142   2.313   2.566   2.559 -0.8907 -1.0537  0.8333
17747THY    CA334143   2.407   2.730   2.908 -0.5084 -0.1971  0.2856
17747THY    HA334144   2.498   2.710   2.852 -0.3457  0.6427 -1.5147
17747THY    CA434145   2.411   2.831   2.998 -0.3606 -0.2364 -0.2668
17747THY    HA434146   2.495   2.900   2.994 -0.1915 -0.3130 -0.4755
17747THY    CA534147   2.293   2.865   3.068  0.5843 -0.2941  0.1742
17747THY    CM134148   2.302   2.987   3.161 -0.1968  0.1293  0.0363
17747THY    HM134149   2.205   3.038   3.155  0.7097 -0.7140  1.7720
17747THY    HM234150   2.380   3.059   3.135  0.5484 -0.6169 -1.0157
17747THY    HM334151   2.323   2.954   3.264  1.1157  0.1796  0.9298
17747THY    CA634152   2.181   2.794   3.061  0.1011 -0.0698 -0.2556
17747THY    HA634153   2.090   2.823   3.113 -0.2664 -1.1373  0.5667
17748THY      O34154   3.769   0.769   7.453  0.0162  0.0647 -0.0220
17748THY     HO34155   3.845   0.771   7.391 -2.0758 -2.6785  1.8293
17748THY    CA134156   3.660   0.734   7.377 -0.2203 -0.3060 -0.3973
17748THY    CA234157   3.526   0.747   7.426 -0.4210 -0.4313 -0.4351
17748THY    CP134158   3.496   0.785   7.572 -0.4033  0.7549  0.1556
17748THY    HP134159   3.590   0.834   7.600 -0.2528  0.1073  0.2527
17748THY    CP234160   3.463   0.673   7.668 -0.3469  0.1351  0.3346
17748THY    HP234161   3.362   0.631   7.661 -0.1373 -1.1411  0.0230
17748THY    HP334162   3.500   0.699   7.768 -0.2332  0.2575 -0.2877
17748THY    HP434163   3.522   0.588   7.632 -2.0190 -0.1927 -0.7462
17748THY    CP334164   3.395   0.896   7.573  0.0319  0.3129 -0.2449
17748THY    HP534165   3.363   0.924   7.674 -0.7347 -0.3749  1.4740
17748THY    HP634166   3.305   0.845   7.538  0.2749 -1.3338  0.3908
17748THY    HP734167   3.416   0.992   7.525 -2.2309  0.4784  0.3729
17748THY    CA334168   3.419   0.724   7.332 -0.6444 -0.3853  0.7530
17748THY    HA334169   3.314   0.721   7.360 -0.5782 -0.2184 -0.2144
17748THY    CA434170   3.450   0.681   7.203 -0.1831 -0.0761  0.6162
17748THY    HA434171   3.372   0.642   7.139 -0.4980  0.0780  0.9859
17748THY    CA534172   3.581   0.667   7.162 -0.8827  0.8656 -0.2874
17748THY    CM134173   3.607   0.611   7.025  0.5335  0.0365  0.7285
17748THY    HM134174   3.683   0.532   7.029  1.2264 -2.7516  1.1528
17748THY    HM234175   3.646   0.692   6.963 -0.7588 -0.2333  1.1764
17748THY    HM334176   3.517   0.569   6.978  0.5351 -0.0840  0.8594
17748THY    CA634177   3.688   0.693   7.249 -0.3431  0.5244 -0.4583
17748THY    HA634178   3.790   0.683   7.214 -0.2302  0.8566 -0.4603
17749THY      O34179   0.381   8.736   2.576 -0.3741  0.3260  0.2046
17749THY     HO34180   0.404   8.686   2.496  0.2255  0.9494 -0.5560
17749THY    CA134181   0.501   8.760   2.638 -0.2492  0.4711 -0.0662
17749THY    CA234182   0.511   8.832   2.756  0.1346  0.1301  0.2728
17749THY    CP134183   0.387   8.909   2.812 -0.0929  0.1702 -0.3100
17749THY    HP134184   0.299   8.904   2.746 -0.7186  1.0017 -0.4948
17749THY    CP234185   0.415   9.059   2.824 -0.3160  0.6685  0.1436
17749THY    HP234186   0.321   9.106   2.856  0.9801  2.4674  1.6482
17749THY    HP334187   0.451   9.110   2.734 -0.6785  0.0608 -0.6465
17749THY    HP434188   0.484   9.078   2.906  0.0677  0.4118 -0.1223
17749THY    CP334189   0.354   8.859   2.954 -0.0251 -0.2382 -0.3289
17749THY    HP534190   0.452   8.841   3.000  0.0144  0.5366  1.6660
17749THY    HP634191   0.294   8.767   2.952 -0.4903  1.0080 -0.0685
17749THY    HP734192   0.295   8.934   3.007  0.3775  1.0050 -0.8710
17749THY    CA334193   0.637   8.846   2.813 -0.8633 -0.1668 -0.0753
17749THY    HA334194   0.646   8.895   2.909  1.0199 -0.1165 -0.4325
17749THY    CA434195   0.746   8.787   2.751 -0.0825 -0.9801  0.0123
17749THY    HA434196   0.844   8.811   2.790 -1.6905  1.5395  3.1538
17749THY    CA534197   0.731   8.721   2.637 -0.7185  0.4805  0.2654
17749THY    CM134198   0.852   8.674   2.573  0.0611 -0.1017 -0.3518
17749THY    HM134199   0.813   8.667   2.471 -1.5682  0.0346  3.9009
17749THY    HM234200   0.883   8.576   2.612 -1.3650  0.9055 -0.4382
17749THY    HM334201   0.931   8.749   2.577 -0.0635 -0.1173 -0.2183
17749THY    CA634202   0.609   8.702   2.575 -0.1292 -0.0666 -0.2078
17749THY    HA634203   0.593   8.645   2.483  2.0427  0.1961 -1.3597
17750THY      O34204   4.542   7.733   2.194  0.3242  0.5788 -0.1905
17750THY     HO34205   4.562   7.822   2.162  0.5117 -0.2451 -0.5195
17750THY    CA134206   4.615   7.653   2.113  1.1743 -0.2755  0.0262
17750THY    CA234207   4.557   7.529   2.079 -0.4476 -0.4997  0.1244
17750THY    CP134208   4.429   7.482   2.144  1.4940 -0.0345  0.3020
17750THY    HP134209   4.380   7.553   2.211 -0.5055  0.2923 -1.2694
17750THY    CP234210   4.451   7.354   2.231 -0.6784  0.3611 -0.8026
17750THY    HP234211   4.489   7.267   2.177  1.6680  1.9584 -0.8621
17750THY    HP334212   4.367   7.336   2.300  0.0206  1.6491  0.6131
17750THY    HP434213   4.531   7.385   2.300 -0.2910 -0.6776  0.6186
17750THY    CP334214   4.328   7.442   2.023  0.2672 -0.7624 -0.0572
17750THY    HP534215   4.309   7.528   1.958 -1.0323 -0.7658 -0.3159
17750THY    HP634216   4.229   7.434   2.070  0.9338  0.6662 -0.2541
17750THY    HP734217   4.355   7.355   1.962 -1.6564 -0.7491 -0.7243
17750THY    CA334218   4.619   7.447   1.982 -0.1628  0.6968  0.4695
17750THY    HA334219   4.593   7.345   1.956  1.8220  3.5687 -0.8851
17750THY    CA434220   4.742   7.498   1.925  1.2790 -0.1755  0.8790
17750THY    HA434221   4.797   7.446   1.847  0.0136 -1.7067  1.7366
17750THY    CA534222   4.791   7.627   1.962 -0.8267 -0.6218  0.6056
17750THY    CM134223   4.908   7.678   1.885 -0.0864  0.2423  0.4390
17750THY    HM134224   4.925   7.626   1.790  0.3283 -0.0550  1.0929
17750THY    HM234225   4.998   7.669   1.947 -0.0530  0.4176  1.8004
17750THY    HM334226   4.893   7.779   1.845 -1.1582 -4.5401 -1.3536
17750THY    CA634227   4.726   7.706   2.053  0.5485  0.3340 -0.0347
17750THY    HA634228   4.767   7.805   2.071 -0.6872  0.1749  0.5257
17751THY      O34229   7.234   5.763   5.405 -0.1874 -0.2327 -0.6998
17751THY     HO34230   7.295   5.831   5.370 -0.7295 -1.9307 -1.0384
17751THY    CA134231   7.293   5.661   5.472  0.5202  0.3859 -0.1651
17751THY    CA234232   7.219   5.549   5.507 -0.2660  0.4716  0.9556
17751THY    CP134233   7.072   5.543   5.482  0.2207 -0.2930  0.1194
17751THY    HP134234   7.042   5.634   5.429 -0.6139 -0.6231 -0.3305
17751THY    CP234235   6.984   5.529   5.606 -0.6857  0.3459  0.6046
17751THY    HP234236   6.878   5.521   5.577 -0.5636 -0.3985  1.4814
17751THY    HP334237   7.008   5.611   5.675  2.9601  0.9722 -0.7913
17751THY    HP434238   7.006   5.439   5.663 -1.6009  0.8283  0.6719
17751THY    CP334239   7.034   5.427   5.385  0.5469 -0.3113 -0.4308
17751THY    HP534240   7.070   5.447   5.284  2.5274  0.9351  3.2368
17751THY    HP634241   6.926   5.413   5.377  0.7602 -1.0773 -1.7313
17751THY    HP734242   7.061   5.327   5.420 -1.2980  0.1532 -0.7925
17751THY    CA334243   7.289   5.436   5.561  0.0335  0.0976  0.1757
17751THY    HA334244   7.230   5.349   5.588 -1.1724  1.3296  1.3197
17751THY    CA434245   7.424   5.445   5.578 -0.3424 -0.2778  0.8442
17751THY    HA434246   7.482   5.362   5.616 -1.6956 -0.7779 -0.3784
17751THY    CA534247   7.498   5.558   5.549  0.7093  0.3558  0.3022
17751THY    CM134248   7.643   5.550   5.561  0.0559  0.0617 -0.4292
17751THY    HM134249   7.685   5.565   5.661 -0.0040  0.2325 -1.3233
17751THY    HM234250   7.693   5.609   5.484  0.0171  0.6956  0.4454
17751THY    HM334251   7.668   5.445   5.540  1.7089 -1.1432  0.1767
17751THY    CA634252   7.437   5.669   5.496 -0.2773  0.3221  0.1946
17751THY    HA634253   7.502   5.751   5.466  0.1089  2.9747  0.9700
17752THY      O34254   3.645   3.577   7.350 -0.0494 -0.2994  0.4944
17752THY     HO34255   3.693   3.498   7.320  2.7162 -0.1532  1.9933
17752THY    CA134256   3.690   3.588   7.480 -0.2689  0.8263 -0.7669
17752THY    CA234257   3.608   3.627   7.580  0.2476 -0.3485  1.1849
17752THY    CP134258   3.463   3.673   7.557  0.4182  0.0428 -0.3381
17752THY    HP134259   3.442   3.689   7.450  1.5175  0.2521  3.7459
17752THY    CP234260   3.448   3.816   7.608  0.2867 -0.3667  0.0852
17752THY    HP234261   3.353   3.853   7.566 -0.8336  1.1974 -0.8764
17752THY    HP334262   3.539   3.869   7.580 -0.0502 -0.6758  0.5101
17752THY    HP434263   3.433   3.814   7.717 -1.9908 -0.6200  0.1376
17752THY    CP334264   3.373   3.568   7.606  0.0699 -1.1118 -0.3289
17752THY    HP534265   3.406   3.476   7.556  2.4806 -0.1391 -0.0637
17752THY    HP634266   3.270   3.583   7.569 -0.8815  1.3447 -0.3689
17752THY    HP734267   3.377   3.565   7.715 -1.2109 -0.9148  2.0997
17752THY    CA334268   3.649   3.622   7.716  0.0799 -0.0917  0.7157
17752THY    HA334269   3.575   3.648   7.792  0.4385  0.5172 -0.0092
17752THY    CA434270   3.782   3.578   7.738  0.8512 -0.2473 -0.0809
17752THY    HA434271   3.817   3.577   7.841 -2.0526  0.8283 -0.8464
17752THY    CA534272   3.868   3.538   7.633  1.2148 -0.1859  0.2200
17752THY    CM134273   4.014   3.494   7.659 -0.2683 -0.3007  0.0635
17752THY    HM134274   4.078   3.540   7.583 -0.6539 -0.9319 -0.4279
17752THY    HM234275   4.036   3.387   7.647  0.5451  0.8770  0.0831
17752THY    HM334276   4.055   3.511   7.759  0.1570 -0.2617 -1.0944
17752THY    CA634277   3.820   3.539   7.501  1.1763 -0.1367  0.0724
17752THY    HA634278   3.892   3.513   7.424 -0.6854 -1.1867 -2.2748
17753THY      O34279   7.106   7.186   4.409  0.4518 -0.0587 -0.3458
17753THY     HO34280   7.121   7.280   4.429 -3.2164 -0.7421  0.5251
17753THY    CA134281   7.223   7.132   4.362  0.3654  0.4414  0.1523
17753THY    CA234282   7.228   7.007   4.302  0.2076  0.2237 -0.3409
17753THY    CP134283   7.103   6.914   4.296  0.1799 -0.2641  0.9302
17753THY    HP134284   7.020   6.985   4.304 -0.0238 -0.0187  0.6664
17753THY    CP234285   7.104   6.798   4.403 -0.7424 -0.3591 -0.7041
17753THY    HP234286   7.185   6.726   4.385 -2.3759 -0.8513 -2.4914
17753THY    HP334287   7.014   6.735   4.405 -1.1979 -0.4594 -0.0617
17753THY    HP434288   7.124   6.838   4.503 -0.9875 -0.3431 -0.6222
17753THY    CP334289   7.086   6.856   4.152 -0.2928  0.0448 -0.1606
17753THY    HP534290   7.162   6.781   4.127  0.2788  0.2906  0.3257
17753THY    HP634291   7.088   6.936   4.076 -0.3577  0.3124  0.0992
17753THY    HP734292   6.985   6.817   4.135 -1.0729  2.2049  0.7836
17753THY    CA334293   7.349   6.954   4.260 -0.3437  0.4049 -0.6868
17753THY    HA334294   7.356   6.855   4.216 -0.3128 -1.2715  0.0314
17753THY    CA434295   7.466   7.039   4.262 -0.5407  0.7151  0.0577
17753THY    HA434296   7.557   7.007   4.213  0.3152  1.5330  1.1478
17753THY    CA534297   7.460   7.166   4.319  0.2795 -0.1505  0.2850
17753THY    CM134298   7.585   7.248   4.354 -0.4083  0.6190  0.1257
17753THY    HM134299   7.673   7.203   4.306 -0.4567  0.7148 -0.0692
17753THY    HM234300   7.605   7.237   4.461 -0.6290  0.5603 -1.0127
17753THY    HM334301   7.575   7.354   4.329  1.3877  0.5815  0.3175
17753THY    CA634302   7.340   7.207   4.377 -0.7667  0.3076  0.5287
17753THY    HA634303   7.341   7.294   4.442 -0.5150  0.8076  0.1529
17754THY      O34304   4.398   5.084   7.630  0.1046 -0.7855 -0.0447
17754THY     HO34305   4.353   5.158   7.673  0.7280  2.2583 -1.2836
17754THY    CA134306   4.321   5.035   7.530  0.0188 -0.2711  0.5792
17754THY    CA234307   4.361   4.925   7.455  0.2959  0.1488 -0.4541
17754THY    CP134308   4.490   4.860   7.494 -0.2422  0.5517 -0.5109
17754THY    HP134309   4.556   4.923   7.556  0.0630 -1.1807  0.9545
17754THY    CP234310   4.588   4.845   7.375 -0.6072 -0.2605  0.4769
17754THY    HP234311   4.602   4.933   7.311  0.4354  3.0950  2.9724
17754THY    HP334312   4.547   4.768   7.309  0.1823  0.5020 -0.6365
17754THY    HP434313   4.686   4.805   7.404  0.8146 -3.0192  1.6951
17754THY    CP334314   4.470   4.721   7.554 -0.4516  0.0828 -0.3125
17754THY    HP534315   4.426   4.647   7.487  1.3512 -2.5716  0.8779
17754THY    HP634316   4.409   4.742   7.643 -0.6046  0.3493 -1.7575
17754THY    HP734317   4.559   4.672   7.595 -2.3539  3.4909 -1.2815
17754THY    CA334318   4.275   4.871   7.356  0.1903  0.4242 -0.8999
17754THY    HA334319   4.317   4.802   7.283 -0.9474 -1.1492  0.0135
17754THY    CA434320   4.149   4.929   7.337 -0.1175  0.2001 -0.0189
17754THY    HA434321   4.086   4.901   7.253  1.1227 -1.1978  1.1656
17754THY    CA534322   4.111   5.034   7.421  0.4395 -0.0378 -0.0056
17754THY    CM134323   3.974   5.080   7.413  0.3729  0.1900 -0.3652
17754THY    HM134324   3.905   4.996   7.429  0.9058  1.0027 -0.6663
17754THY    HM234325   3.954   5.128   7.316  1.1067  1.1920  2.1120
17754THY    HM334326   3.966   5.159   7.488  3.3294 -0.0042  0.2243
17754THY    CA634327   4.199   5.093   7.516  0.3990 -0.6259 -0.0887
17754THY    HA634328   4.173   5.173   7.584  3.3453  0.3000  0.1998
17755THY      O34329   4.400   6.454   4.992 -0.4020  0.0688  0.3910
17755THY     HO34330   4.377   6.360   5.000 -0.3810  2.4510  0.5265
17755THY    CA134331   4.336   6.501   4.889 -0.3706  0.1978  0.5267
17755THY    CA234332   4.337   6.640   4.857 -0.7333 -0.2514  0.1049
17755THY    CP134333   4.413   6.741   4.940  0.5251 -0.0213 -1.0322
17755THY    HP134334   4.476   6.678   5.005  1.6456 -1.1794 -1.1646
17755THY    CP234335   4.327   6.835   5.018 -0.0903  0.0191 -0.4866
17755THY    HP234336   4.277   6.912   4.957 -1.5882  0.1778 -1.2813
17755THY    HP334337   4.396   6.889   5.083 -1.2340 -0.7211  2.0418
17755THY    HP434338   4.255   6.776   5.076  1.4189  0.8799 -1.5357
17755THY    CP334339   4.501   6.828   4.852  0.2507 -0.5196 -0.5611
17755THY    HP534340   4.538   6.906   4.919  0.4106 -1.9663  0.6491
17755THY    HP634341   4.445   6.876   4.771 -3.1239  1.3811 -0.9737
17755THY    HP734342   4.582   6.762   4.817  1.0791  1.0144 -0.3882
17755THY    CA334343   4.245   6.679   4.755  0.0017  0.1236 -0.0282
17755THY    HA334344   4.227   6.785   4.744  1.6309 -3.1721  0.0184
17755THY    CA434345   4.181   6.585   4.677 -0.4470  0.2891 -0.0036
17755THY    HA434346   4.116   6.612   4.594 -1.2604  0.3261 -1.7020
17755THY    CA534347   4.180   6.449   4.712 -0.2129 -0.0004  0.5480
17755THY    CM134348   4.090   6.356   4.641 -0.1788  0.3032  0.3233
17755THY    HM134349   4.023   6.410   4.573  0.5436 -1.3905 -0.8077
17755THY    HM234350   4.023   6.300   4.707 -1.5293 -1.6632 -0.5178
17755THY    HM334351   4.141   6.283   4.576 -0.3991 -0.3707  0.7571
17755THY    CA634352   4.267   6.410   4.816  0.1023 -0.2148  0.1952
17755THY    HA634353   4.261   6.302   4.831  2.1288  0.4711  0.1358
17756THY      O34354   4.065   2.141   2.687 -0.9445 -0.5560  0.3815
17756THY     HO34355   4.073   2.182   2.599  0.8513 -0.9854 -0.7586
17756THY    CA134356   3.938   2.094   2.682  0.3733 -0.2106  0.4309
17756THY    CA234357   3.861   2.052   2.794  0.3899 -0.7131 -0.4196
17756THY    CP134358   3.921   2.056   2.937  0.1201  0.0895  0.0392
17756THY    HP134359   4.018   2.101   2.911 -0.6751 -1.9947  0.6569
17756THY    CP234360   3.925   1.922   3.013 -0.0299  0.1941  0.2323
17756THY    HP234361   4.003   1.858   2.971 -0.9751  1.1924 -1.6678
17756THY    HP334362   3.833   1.866   2.996 -1.9501  1.5372  2.7646
17756THY    HP434363   3.935   1.932   3.122  0.9317  0.5411 -3.3563
17756THY    CP334364   3.850   2.159   3.028 -0.2497  0.3180 -0.2118
17756THY    HP534365   3.744   2.132   3.033 -1.0178 -1.0314  2.2728
17756THY    HP634366   3.885   2.255   2.988  1.3813 -1.4328 -1.4785
17756THY    HP734367   3.902   2.149   3.124  0.7359 -0.1210  0.4625
17756THY    CA334368   3.732   2.006   2.771 -0.4166 -0.1418 -0.2525
17756THY    HA334369   3.674   1.977   2.859 -0.9053 -1.7297 -5.0244
17756THY    CA434370   3.672   2.013   2.642  0.5464 -1.5685 -0.0865
17756THY    HA434371   3.569   1.981   2.624  0.4200  1.6842 -1.8956
17756THY    CA534372   3.750   2.056   2.534 -0.5463 -0.0749  0.1626
17756THY    CM134373   3.686   2.066   2.399  0.0765  0.3332 -1.0171
17756THY    HM134374   3.774   2.056   2.335 -0.2615 -0.5160  0.9015
17756THY    HM234375   3.645   2.167   2.381 -0.4967  0.6926 -1.1796
17756THY    HM334376   3.613   1.987   2.383 -0.5103  1.8963 -0.8367
17756THY    CA634377   3.884   2.091   2.552  0.5475 -0.9315 -0.6596
17756THY    HA634378   3.939   2.125   2.464 -0.5114 -1.6506 -0.7666
17757THY      O34379   3.975   1.899   3.865  0.3662  0.5073 -0.3123
17757THY     HO34380   3.894   1.848   3.879  1.3190  1.7868 -1.5927
17757THY    CA134381   3.963   2.019   3.923 -0.2413  0.6578 -1.1098
17757THY    CA234382   4.059   2.123   3.897  0.7407 -0.2189 -0.3126
17757THY    CP134383   4.181   2.093   3.804  0.1357 -0.4519 -0.3738
17757THY    HP134384   4.154   2.005   3.746  0.4889 -0.0297 -0.7700
17757THY    CP234385   4.311   2.061   3.865  0.3874 -0.3696 -0.5444
17757THY    HP234386   4.295   1.987   3.944 -0.1789 -1.8688 -2.0677
17757THY    HP334387   4.363   2.149   3.906  0.2508 -2.3894  0.5414
17757THY    HP434388   4.392   2.016   3.807  2.5321  2.3370 -0.4423
17757THY    CP334389   4.206   2.212   3.714 -0.5369 -0.8564 -0.7842
17757THY    HP534390   4.209   2.314   3.753 -1.6723 -0.9937 -0.6929
17757THY    HP634391   4.119   2.201   3.648 -0.4172 -1.0765 -0.4208
17757THY    HP734392   4.299   2.197   3.657  1.1012  1.6482 -0.7886
17757THY    CA334393   4.046   2.242   3.967  0.2212  0.1978  0.0032
17757THY    HA334394   4.121   2.319   3.958  0.1635  0.2962  0.0704
17757THY    CA434395   3.937   2.260   4.050  0.4292  0.4329  0.0420
17757THY    HA434396   3.921   2.352   4.106  1.2102  0.2610  0.2846
17757THY    CA534397   3.830   2.165   4.058 -0.9204 -0.2084  0.2173
17757THY    CM134398   3.714   2.173   4.151  0.6101 -0.0449  0.7964
17757THY    HM134399   3.673   2.073   4.170  0.2823  1.8377  1.2428
17757THY    HM234400   3.630   2.229   4.107 -1.1781  0.1798 -1.5382
17757THY    HM334401   3.730   2.228   4.245  0.4117  0.0595  0.6768
17757THY    CA634402   3.844   2.048   3.984  0.0581  0.6255 -0.1161
17757THY    HA634403   3.765   1.974   3.973 -1.1110  1.7735  0.9194
17758THY      O34404   0.082   1.830   7.624  0.5373  0.0431  0.1140
17758THY     HO34405   0.078   1.927   7.628 -0.0237  2.1416  0.0543
17758THY    CA134406   0.157   1.808   7.519 -0.2489 -0.3539  0.7150
17758THY    CA234407   0.252   1.704   7.525 -0.0726 -0.7586 -0.9511
17758THY    CP134408   0.263   1.610   7.648 -0.1466  0.7068 -0.5086
17758THY    HP134409   0.175   1.626   7.712 -0.5966 -0.5387  2.5249
17758THY    CP234410   0.385   1.635   7.743 -0.1862  0.7504 -0.0526
17758THY    HP234411   0.478   1.640   7.685 -1.5797 -1.5258  0.8495
17758THY    HP334412   0.390   1.548   7.810 -2.2024  0.2569 -0.5857
17758THY    HP434413   0.379   1.730   7.799 -1.4749 -2.1661  1.7084
17758THY    CP334414   0.268   1.462   7.601 -0.4873  0.1107  0.2317
17758THY    HP534415   0.366   1.430   7.565 -1.8310 -1.6826 -2.1560
17758THY    HP634416   0.198   1.439   7.520 -1.1272  0.8917 -0.6547
17758THY    HP734417   0.244   1.403   7.691 -0.1605 -1.0758 -1.7877
17758THY    CA334418   0.346   1.679   7.419  1.0803  0.1922 -0.7204
17758THY    HA334419   0.430   1.610   7.428  1.2477 -1.6572 -0.8053
17758THY    CA434420   0.319   1.749   7.297 -0.3130 -0.0024  0.1653
17758THY    HA434421   0.371   1.725   7.205 -1.2758 -1.1577  2.2617
17758THY    CA534422   0.213   1.846   7.292 -0.2115 -0.0844  0.6394
17758THY    CM134423   0.178   1.930   7.168  0.4764  1.0269  0.4356
17758THY    HM134424   0.075   1.899   7.147  0.1575  0.8051  1.5731
17758THY    HM234425   0.241   1.907   7.081 -1.0175 -0.2154  0.8990
17758THY    HM334426   0.196   2.038   7.176 -1.3895 -2.0506  1.0873
17758THY    CA634427   0.143   1.887   7.411  0.1776  0.3409 -0.5977
17758THY    HA634428   0.073   1.970   7.417 -0.2452 -2.6166 -0.6355
17759THY      O34429   3.399   0.969   7.113  0.1276 -0.0617  0.5055
17759THY     HO34430   3.404   0.908   7.188  0.3900 -0.7175 -0.3025
17759THY    CA134431   3.301   1.053   7.139  0.4823  0.3368 -0.5891
17759THY    CA234432   3.266   1.159   7.048  0.0200  0.5149 -0.1517
17759THY    CP134433   3.344   1.179   6.917 -0.1821  0.4726 -0.3549
17759THY    HP134434   3.397   1.092   6.877  0.8787 -2.3076  1.4452
17759THY    CP234435   3.447   1.283   6.941 -0.1064 -0.0475  0.3016
17759THY    HP234436   3.519   1.277   6.858 -0.7707 -0.7217  1.3931
17759THY    HP334437   3.508   1.271   7.032  0.9965 -0.9045 -0.8888
17759THY    HP434438   3.411   1.386   6.950  2.3932  0.1285  1.2295
17759THY    CP334439   3.266   1.222   6.795  0.0780 -0.7870  0.5488
17759THY    HP534440   3.238   1.328   6.803  3.6772 -1.2957  1.6455
17759THY    HP634441   3.177   1.158   6.786  1.1047 -2.6992 -0.7066
17759THY    HP734442   3.323   1.205   6.704 -1.5689 -1.5216 -1.4399
17759THY    CA334443   3.170   1.258   7.088 -0.5937 -0.4869  0.2502
17759THY    HA334444   3.128   1.339   7.029 -1.4767  3.4822  3.0150
17759THY    CA434445   3.110   1.232   7.210  0.2515  0.5840 -0.0956
17759THY    HA434446   3.033   1.302   7.242 -1.1980  0.2971 -1.5004
17759THY    CA534447   3.143   1.132   7.297  0.0397  0.1885  0.0228
17759THY    CM134448   3.071   1.131   7.433 -0.0867 -0.5585 -0.1842
17759THY    HM134449   3.110   1.051   7.497 -0.1767  1.5444  1.3359
17759THY    HM234450   2.961   1.121   7.434 -0.0487  2.1396 -1.3658
17759THY    HM334451   3.088   1.225   7.488 -2.4261  1.6353 -0.8925
17759THY    CA634452   3.241   1.039   7.258 -0.4588 -0.7002 -0.5422
17759THY    HA634453   3.255   0.948   7.316  1.1175 -0.4909 -0.1929
17760THY      O34454   6.935   2.376   7.254  0.6481  0.1818  0.1403
17760THY     HO34455   7.027   2.403   7.235  1.2011  1.7878 -0.4665
17760THY    CA134456   6.938   2.387   7.384  0.2417 -0.2731  0.0781
17760THY    CA234457   6.824   2.418   7.457  0.2657 -0.3314  0.2040
17760THY    CP134458   6.687   2.422   7.392  0.1481 -0.2649 -0.2518
17760THY    HP134459   6.686   2.392   7.286 -2.7992  0.1654 -2.1279
17760THY    CP234460   6.624   2.559   7.395 -0.3369 -0.2167  0.9034
17760THY    HP234461   6.695   2.637   7.365  0.4815 -2.3422 -0.5487
17760THY    HP334462   6.587   2.576   7.497 -1.0718 -0.7622  2.9029
17760THY    HP434463   6.542   2.555   7.323  0.9158 -1.8074  2.2947
17760THY    CP334464   6.595   2.300   7.440  0.3218  0.4488 -0.3328
17760THY    HP534465   6.596   2.306   7.549  0.8877  0.4094  0.4593
17760THY    HP634466   6.644   2.211   7.398 -1.4120 -1.0173 -0.6524
17760THY    HP734467   6.499   2.314   7.389  1.2133 -1.8151 -1.9503
17760THY    CA334468   6.836   2.440   7.600  0.0261  0.0699 -0.1327
17760THY    HA334469   6.749   2.452   7.663 -1.3702 -1.9822  1.2605
17760THY    CA434470   6.960   2.442   7.655 -1.0130 -0.4877  0.2535
17760THY    HA434471   6.969   2.463   7.761  1.1815 -0.2538 -1.4982
17760THY    CA534472   7.075   2.416   7.576  0.3598 -0.2189 -0.4296
17760THY    CM134473   7.204   2.428   7.632 -0.1669  0.0722 -0.5063
17760THY    HM134474   7.212   2.411   7.740 -0.4476  0.7821  3.1097
17760THY    HM234475   7.246   2.528   7.614 -1.4471 -1.6659 -0.2404
17760THY    HM334476   7.272   2.359   7.581 -0.9191  0.3770 -1.5070
17760THY    CA634477   7.062   2.388   7.443  0.2700 -0.3274 -0.1696
17760THY    HA634478   7.153   2.371   7.387  1.2176  1.7193 -2.4487
17761THY      O34479   0.810   7.444   7.725 -0.0240  0.0435 -0.0159
17761THY     HO34480   0.762   7.482   7.649  1.4104  0.7294  3.5994
17761THY    CA134481   0.935   7.452   7.678  0.0411 -0.2053  1.0906
17761THY    CA234482   1.037   7.402   7.754 -0.1290 -0.6762 -0.5461
17761THY    CP134483   1.008   7.340   7.896 -0.4443 -0.5063 -0.2569
17761THY    HP134484   0.907   7.297   7.891  0.0504  1.3376 -1.7493
17761THY    CP234485   1.017   7.457   8.003 -0.2600  0.7232 -0.3707
17761THY    HP234486   1.115   7.506   8.002 -1.1906 -3.9080  1.9010
17761THY    HP334487   0.988   7.411   8.099 -3.7698 -0.2869 -0.5690
17761THY    HP434488   0.952   7.543   7.987  1.3008  2.0182  1.1135
17761THY    CP334489   1.107   7.233   7.931 -1.0883  0.0814  0.4786
17761THY    HP534490   1.207   7.275   7.949 -0.6239 -1.4692  0.1231
17761THY    HP634491   1.117   7.147   7.863 -0.7625  0.3662  0.2879
17761THY    HP734492   1.067   7.182   8.019  1.7813  2.0429  1.3542
17761THY    CA334493   1.170   7.409   7.708  0.6928  0.1756  0.0740
17761THY    HA334494   1.256   7.369   7.762 -0.5234  1.6320 -0.6590
17761THY    CA434495   1.190   7.475   7.585 -0.3714  0.8847  0.6032
17761THY    HA434496   1.286   7.466   7.534  0.2087  2.1827 -1.0413
17761THY    CA534497   1.080   7.526   7.511 -1.0730  0.3960  0.3636
17761THY    CM134498   1.104   7.574   7.373 -0.3931  0.5559  0.3026
17761THY    HM134499   1.043   7.514   7.305 -0.1084 -1.4578  2.1989
17761THY    HM234500   1.207   7.557   7.341 -0.7996 -1.2737  1.0837
17761THY    HM334501   1.096   7.682   7.362  2.5404  0.6873  0.6108
17761THY    CA634502   0.953   7.520   7.557  0.0184 -0.1407  0.4485
17761THY    HA634503   0.867   7.552   7.500  0.1219 -1.5093 -1.5138
17762THY      O34504   6.077   7.188   3.343  0.3901  0.2016 -0.0013
17762THY     HO34505   6.122   7.102   3.332  0.1258  0.3264 -0.1578
17762THY    CA134506   5.984   7.198   3.243  1.0203  0.0362  0.0354
17762THY    CA234507   5.869   7.277   3.255  0.8163  0.1545 -0.8539
17762THY    CP134508   5.832   7.350   3.386 -0.0310 -0.4181  0.3975
17762THY    HP134509   5.905   7.321   3.463 -1.4300  1.3329  1.2538
17762THY    CP234510   5.691   7.319   3.436  0.6783  0.2175 -0.0805
17762THY    HP234511   5.680   7.210   3.439 -1.7578  1.5852  0.1453
17762THY    HP334512   5.611   7.370   3.381  2.3126 -0.8263  1.4699
17762THY    HP434513   5.686   7.355   3.539 -2.2500  0.5744 -1.2481
17762THY    CP334514   5.847   7.502   3.369 -0.0009  0.6950 -0.5729
17762THY    HP534515   5.756   7.562   3.356  0.7875  1.3806  0.8375
17762THY    HP634516   5.928   7.527   3.299  0.4033  1.4615  0.3076
17762THY    HP734517   5.883   7.527   3.469  1.5747 -0.2803  1.3817
17762THY    CA334518   5.769   7.270   3.150 -1.0309 -0.3560 -0.3430
17762THY    HA334519   5.665   7.301   3.160 -1.2478 -0.4598 -1.0021
17762THY    CA434520   5.788   7.185   3.038  0.0189 -0.1791 -1.0717
17762THY    HA434521   5.704   7.176   2.970  0.4789 -0.6846 -1.6497
17762THY    CA534522   5.908   7.113   3.021  0.2098 -0.2553 -0.3571
17762THY    CM134523   5.932   7.042   2.898  0.7192  0.7596 -0.3880
17762THY    HM134524   5.982   7.101   2.820 -0.5101 -0.5527 -1.0178
17762THY    HM234525   5.837   7.009   2.855 -0.2222  2.6062 -0.2111
17762THY    HM334526   5.990   6.950   2.909 -1.1768 -0.9722 -1.8923
17762THY    CA634527   6.004   7.115   3.126 -0.9171  0.5549 -0.0519
17762THY    HA634528   6.096   7.058   3.120 -0.1759  2.3820  0.8452
17763THY      O34529   2.001   3.085   2.969 -0.1012 -0.6242  0.1439
17763THY     HO34530   1.988   3.007   3.025  1.1102 -0.0827  0.3013
17763THY    CA134531   1.925   3.180   3.033  0.0891 -0.0505  0.0186
17763THY    CA234532   1.912   3.310   2.981  0.7722  0.4295  0.2774
17763THY    CP134533   1.969   3.350   2.840 -0.3796 -0.2945 -0.0923
17763THY    HP134534   1.986   3.256   2.785  0.8925 -2.7932  1.4932
17763THY    CP234535   2.101   3.421   2.841  0.3995 -0.0653 -0.2836
17763THY    HP234536   2.144   3.412   2.741  1.0872  0.1665  0.3248
17763THY    HP334537   2.186   3.385   2.901  2.3685 -1.3236  1.9543
17763THY    HP434538   2.095   3.529   2.862  1.3384 -0.9624 -0.0427
17763THY    CP334539   1.874   3.434   2.745 -0.4525 -0.3732  0.2898
17763THY    HP534540   1.769   3.404   2.744 -0.6780 -1.3139  1.0718
17763THY    HP634541   1.919   3.438   2.646  0.3916  0.0085  0.4677
17763THY    HP734542   1.865   3.537   2.782 -0.5911 -1.0003  0.5045
17763THY    CA334543   1.830   3.402   3.048 -0.3090  0.2016  0.0874
17763THY    HA334544   1.814   3.504   3.014 -0.8594 -1.9167 -0.6578
17763THY    CA434545   1.759   3.357   3.163  0.2445  1.1324 -0.2981
17763THY    HA434546   1.693   3.424   3.218 -0.6571  1.1719 -1.1853
17763THY    CA534547   1.770   3.228   3.215 -0.1521 -0.0817  0.2260
17763THY    CM134548   1.709   3.200   3.346  0.3663 -0.1597  0.1023
17763THY    HM134549   1.725   3.093   3.366  0.9720 -0.0569  0.2067
17763THY    HM234550   1.603   3.222   3.363  0.7873  3.2739  0.1094
17763THY    HM334551   1.774   3.251   3.419  0.4180 -0.5342  0.5767
17763THY    CA634552   1.847   3.138   3.146 -0.5974  0.5998 -0.2401
17763THY    HA634553   1.853   3.033   3.176  1.8455 -0.1991 -0.3859
17764THY      O34554   2.764   4.408   4.942  0.8711 -0.0649 -0.7311
17764THY     HO34555   2.752   4.349   4.866  1.4132 -1.4125  0.8470
17764THY    CA134556   2.825   4.516   4.890 -0.7379  0.5191 -0.2477
17764THY    CA234557   2.895   4.612   4.964  0.1079  0.4682  0.3185
17764THY    CP134558   2.913   4.598   5.115  0.2090  0.1819  0.8741
17764THY    HP134559   2.825   4.543   5.151 -1.2785 -1.0145  2.3557
17764THY    CP234560   2.920   4.730   5.200  0.3959 -0.7191  0.0165
17764THY    HP234561   2.899   4.712   5.306  1.2213 -0.4862  0.3413
17764THY    HP334562   2.843   4.798   5.162  1.0031 -1.1375  0.4882
17764THY    HP434563   3.018   4.777   5.215 -0.2018 -0.6146  1.2619
17764THY    CP334564   3.033   4.509   5.135  0.1172  0.7598  0.4405
17764THY    HP534565   3.130   4.556   5.111  0.4502  0.3798 -0.4132
17764THY    HP634566   3.030   4.415   5.080 -0.9843  1.9259 -0.2247
17764THY    HP734567   3.052   4.478   5.238 -0.1380  0.9109  0.7737
17764THY    CA334568   2.963   4.719   4.898 -0.8924  0.4111 -0.0157
17764THY    HA334569   3.020   4.790   4.957  0.7907 -1.7743  0.5747
17764THY    CA434570   2.957   4.736   4.757  0.4323  0.1032  0.1471
17764THY    HA434571   3.006   4.821   4.710  1.7405  1.2657  0.0602
17764THY    CA534572   2.891   4.639   4.684  0.1716  0.6994 -0.2311
17764THY    CM134573   2.888   4.648   4.532 -0.1584 -0.4260 -0.1679
17764THY    HM134574   2.986   4.622   4.489 -0.8830 -0.9610 -2.2641
17764THY    HM234575   2.856   4.752   4.519 -0.2577 -0.2947 -0.1818
17764THY    HM334576   2.813   4.578   4.495 -0.2453  1.1165 -0.9241
17764THY    CA634577   2.819   4.531   4.745  0.6195  0.1696  0.1738
17764THY    HA634578   2.753   4.474   4.679  2.0942 -0.2894 -1.0658
17765THY      O34579   6.520   3.833   4.415 -0.0583  0.1469 -0.1088
17765THY     HO34580   6.477   3.891   4.350  3.3388 -1.7323  0.5611
17765THY    CA134581   6.577   3.913   4.514  0.4147  0.3992 -0.0509
17765THY    CA234582   6.675   3.865   4.601 -0.2754 -0.3733  0.1065
17765THY    CP134583   6.722   3.725   4.595  0.2389 -0.3186  0.3294
17765THY    HP134584   6.708   3.685   4.493  2.4380  0.2035 -1.9854
17765THY    CP234585   6.652   3.641   4.710 -0.6203  0.0058  0.6686
17765THY    HP234586   6.721   3.615   4.792  1.0875 -1.7444 -0.6374
17765THY    HP334587   6.607   3.552   4.666 -1.0419 -0.3735  1.0680
17765THY    HP434588   6.563   3.688   4.752 -0.3448  0.7684  0.5230
17765THY    CP334589   6.878   3.704   4.613  0.3478  0.3445  0.5647
17765THY    HP534590   6.916   3.749   4.706 -0.7147  0.5231  1.1081
17765THY    HP634591   6.929   3.747   4.527  0.5322  0.5840  0.8325
17765THY    HP734592   6.903   3.598   4.629 -1.5218 -2.6377 -0.4394
17765THY    CA334593   6.722   3.955   4.700 -0.2374  0.1896  0.0063
17765THY    HA334594   6.797   3.925   4.772  0.3261 -0.8303 -1.1839
17765THY    CA434595   6.690   4.092   4.695  1.0043 -0.3167  0.3479
17765THY    HA434596   6.734   4.163   4.765 -0.4609  0.4717  0.5174
17765THY    CA534597   6.597   4.139   4.601 -0.1669  0.7059  0.8334
17765THY    CM134598   6.543   4.280   4.584 -0.2136  0.6919 -0.0536
17765THY    HM134599   6.443   4.263   4.542  0.3571 -0.3354 -1.0215
17765THY    HM234600   6.599   4.329   4.504 -1.4462 -0.5330 -0.5638
17765THY    HM334601   6.536   4.345   4.672  1.2304  0.5629  0.2961
17765THY    CA634602   6.547   4.052   4.505  0.8145 -0.2169 -0.0559
17765THY    HA634603   6.477   4.091   4.432  0.9435 -0.2890  0.0407
17766THY      O34604   7.390   1.219   6.250  0.7623 -0.2640  0.1013
17766THY     HO34605   7.315   1.175   6.294 -0.0065 -0.2972  1.3279
17766THY    CA134606   7.345   1.342   6.225 -0.1771  0.1846  0.3456
17766THY    CA234607   7.410   1.420   6.129  0.3193 -0.6946 -0.1717
17766THY    CP134608   7.521   1.361   6.040 -0.1890 -0.8547 -0.4716
17766THY    HP134609   7.561   1.266   6.077  0.9895  1.0816  0.7265
17766THY    CP234610   7.643   1.451   6.035  0.3792  0.0156 -0.0256
17766THY    HP234611   7.727   1.397   5.992 -0.8888  0.5348 -2.5486
17766THY    HP334612   7.669   1.494   6.133 -0.3871  0.7403 -1.1689
17766THY    HP434613   7.630   1.539   5.970  2.3509 -0.6985 -0.2261
17766THY    CP334614   7.456   1.344   5.899  0.4745  0.1862 -0.5675
17766THY    HP534615   7.366   1.282   5.894 -1.2804 -2.4607  1.9279
17766THY    HP634616   7.531   1.305   5.828 -0.5001  0.2321 -2.6798
17766THY    HP734617   7.421   1.441   5.862 -0.2709  0.4116 -0.7507
17766THY    CA334618   7.364   1.554   6.103  0.7206  0.1138  0.2541
17766THY    HA334619   7.401   1.621   6.027  2.2405 -0.7956 -1.5254
17766THY    CA434620   7.258   1.599   6.178 -0.0617 -0.1729 -0.6913
17766THY    HA434621   7.231   1.704   6.168  2.7460 -1.3863  0.0057
17766THY    CA534622   7.195   1.518   6.276 -0.0552  0.7258 -0.7877
17766THY    CM134623   7.090   1.576   6.367 -0.0013 -1.2868  0.1197
17766THY    HM134624   7.081   1.682   6.341  1.4840  2.7799  1.4478
17766THY    HM234625   7.120   1.564   6.472 -0.7928 -1.1183 -0.4728
17766THY    HM334626   6.993   1.527   6.354 -1.0003 -0.7058  1.8692
17766THY    CA634627   7.233   1.385   6.296 -0.0637  0.9148 -0.8288
17766THY    HA634628   7.197   1.329   6.381  0.4483  1.4720 -0.3346
17767THY      O34629   5.686   6.707   5.023 -0.4077 -0.3440  0.1630
17767THY     HO34630   5.734   6.759   4.957 -0.2669 -0.4039 -0.0428
17767THY    CA134631   5.631   6.799   5.106  0.7619 -0.5998 -0.5459
17767THY    CA234632   5.543   6.762   5.211 -0.7804 -0.1175  0.1606
17767THY    CP134633   5.514   6.616   5.236 -0.6383  1.0048 -0.0935
17767THY    HP134634   5.535   6.563   5.141 -1.5032  1.2311 -0.8766
17767THY    CP234635   5.362   6.588   5.241 -0.0153  0.3858  0.1567
17767THY    HP234636   5.343   6.506   5.311  2.3853  0.3390 -0.5049
17767THY    HP334637   5.325   6.565   5.141  1.8025 -0.9269  2.4981
17767THY    HP434638   5.303   6.671   5.282  0.0179 -0.5633  0.6604
17767THY    CP334639   5.585   6.567   5.365  0.3610 -0.4364  0.4084
17767THY    HP534640   5.561   6.461   5.381 -0.8212  3.5186  1.0990
17767THY    HP634641   5.540   6.619   5.450 -0.1722 -0.3646 -0.1621
17767THY    HP734642   5.694   6.567   5.355  0.2818 -2.7744 -2.7746
17767THY    CA334643   5.484   6.857   5.292  0.5497  0.3111 -0.1966
17767THY    HA334644   5.411   6.833   5.368 -3.5200 -2.8743  1.0583
17767THY    CA434645   5.518   6.992   5.271 -0.0535  0.2844 -0.3127
17767THY    HA434646   5.473   7.073   5.328  1.2400 -2.0061  2.1943
17767THY    CA534647   5.615   7.026   5.178  0.1819 -0.0231 -0.0936
17767THY    CM134648   5.654   7.166   5.155  0.5479 -0.2771 -0.2147
17767THY    HM134649   5.622   7.193   5.054 -0.8296 -0.4927 -2.3770
17767THY    HM234650   5.763   7.171   5.163  0.5215  0.5656 -0.7129
17767THY    HM334651   5.606   7.233   5.227 -2.1991  1.1376 -3.3815
17767THY    CA634652   5.669   6.930   5.093  0.6172 -0.1010  0.1642
17767THY    HA634653   5.744   6.963   5.022 -0.1565 -0.3174  1.5630
17768THY      O34654   0.565   3.200   3.152 -0.3491 -0.4384 -0.2438
17768THY     HO34655   0.609   3.263   3.093 -2.7866 -0.7257  1.2979
17768THY    CA134656   0.663   3.166   3.248 -0.3379  0.3299 -0.1035
17768THY    CA234657   0.634   3.113   3.375 -0.2462 -0.3476 -0.4606
17768THY    CP134658   0.488   3.086   3.419 -1.0126 -0.2387  0.6826
17768THY    HP134659   0.447   3.032   3.332 -0.9892 -0.8533  1.6298
17768THY    CP234660   0.403   3.209   3.448 -0.1482  0.0740  0.2441
17768THY    HP234661   0.308   3.189   3.498  0.3594  0.7318 -0.6037
17768THY    HP334662   0.382   3.260   3.353 -1.8202  0.7272  0.8408
17768THY    HP434663   0.455   3.288   3.505 -1.1588  0.7803  0.4127
17768THY    CP334664   0.485   2.991   3.535 -0.7590 -0.8455  0.0473
17768THY    HP534665   0.384   2.956   3.558 -0.6104 -1.4782 -0.8232
17768THY    HP634666   0.527   3.041   3.624  0.5220 -0.6813 -1.2431
17768THY    HP734667   0.549   2.902   3.541 -1.1791  1.9089 -0.1623
17768THY    CA334668   0.746   3.077   3.461  0.1304  0.7930 -0.0292
17768THY    HA334669   0.727   3.037   3.560  3.3783  2.5717  2.3333
17768THY    CA434670   0.873   3.104   3.422  0.2507 -0.0303  1.0410
17768THY    HA434671   0.955   3.077   3.488  0.3804 -0.1834  1.0548
17768THY    CA534672   0.892   3.169   3.299  0.0493  0.6273  0.2160
17768THY    CM134673   1.032   3.196   3.269 -0.2900  0.4399  0.2677
17768THY    HM134674   1.099   3.113   3.297  2.0663 -3.1375  0.7515
17768THY    HM234675   1.081   3.287   3.304 -1.0314  1.2402  0.3765
17768THY    HM334676   1.041   3.198   3.160 -3.6852  0.0227 -0.5990
17768THY    CA634677   0.791   3.194   3.212 -0.0030 -0.2844  0.5506
17768THY    HA634678   0.805   3.244   3.116 -1.2006  0.5960  2.7003
17769THY      O34679   5.496   1.014   4.204 -0.0303 -0.2666 -0.0631
17769THY     HO34680   5.478   0.918   4.199 -0.3293  0.6233 -0.0591
17769THY    CA134681   5.375   1.072   4.188 -0.7489  0.1028  0.3653
17769THY    CA234682   5.346   1.201   4.249 -0.3273  0.3747 -0.5410
17769THY    CP134683   5.455   1.274   4.326  0.0230 -0.0951 -0.4062
17769THY    HP134684   5.526   1.198   4.362 -1.9542  0.9267 -1.8550
17769THY    CP234685   5.402   1.345   4.461  0.0517 -0.0393 -0.1448
17769THY    HP234686   5.374   1.268   4.534 -1.6193  1.0219  1.3846
17769THY    HP334687   5.313   1.406   4.441  0.0162  0.2100 -0.1139
17769THY    HP434688   5.485   1.398   4.511 -1.1563  0.5233  1.2906
17769THY    CP334689   5.529   1.381   4.241  0.5752  0.6649  0.1705
17769THY    HP534690   5.592   1.447   4.303 -1.7877  0.8394  2.4580
17769THY    HP634691   5.453   1.448   4.201  1.5599  1.0582  1.5828
17769THY    HP734692   5.582   1.342   4.154  0.1340  0.8985 -0.9580
17769THY    CA334693   5.220   1.261   4.220 -0.7238  0.3332 -0.0750
17769THY    HA334694   5.188   1.358   4.254 -1.5737 -1.2616  0.2411
17769THY    CA434695   5.120   1.194   4.145  0.4517  0.1807 -0.0763
17769THY    HA434696   5.025   1.243   4.127  0.1520  1.5997 -0.0648
17769THY    CA534697   5.151   1.069   4.096 -0.6883  0.5060  0.0384
17769THY    CM134698   5.047   0.997   4.021 -0.1024  0.1280 -0.0102
17769THY    HM134699   4.958   0.973   4.081 -0.6790  0.1798  2.0742
17769THY    HM234700   5.083   0.903   3.978 -2.1250  0.3348 -0.9402
17769THY    HM334701   5.010   1.054   3.935  0.9308 -0.2444  0.1219
17769THY    CA634702   5.270   1.004   4.119 -0.0605  0.0409  0.2794
17769THY    HA634703   5.278   0.902   4.083  1.2185 -0.2250  0.4555
17770THY      O34704   9.182   3.697   6.702  0.1151  0.0799  0.1362
17770THY     HO34705   9.270   3.656   6.711 -0.4746  0.1784 -1.1444
17770THY    CA134706   9.103   3.642   6.796 -0.4951  0.5525 -0.0789
17770THY    CA234707   8.969   3.657   6.790 -0.0973  0.4587 -0.1095
17770THY    CP134708   8.900   3.727   6.668  0.1571  0.4460 -0.0729
17770THY    HP134709   8.977   3.721   6.590  1.2972  1.5455 -0.3966
17770THY    CP234710   8.852   3.863   6.695 -0.3175 -0.4488 -0.0748
17770THY    HP234711   8.786   3.877   6.781  0.6598  0.1771  0.8038
17770THY    HP334712   8.820   3.923   6.609 -1.5566  1.7982  2.7104
17770THY    HP434713   8.940   3.917   6.733  0.8568 -2.1924 -0.6649
17770THY    CP334714   8.775   3.654   6.609  0.2095  0.2638  0.5979
17770THY    HP534715   8.685   3.660   6.671  0.1499  0.0720  1.9901
17770THY    HP634716   8.799   3.549   6.589  0.3362  0.9126  0.5005
17770THY    HP734717   8.744   3.697   6.513  3.3850 -1.7607 -1.2447
17770THY    CA334718   8.895   3.602   6.898 -0.0471 -0.4394  0.3732
17770THY    HA334719   8.787   3.605   6.893  0.0220 -2.0640  1.4546
17770THY    CA434720   8.952   3.542   7.002  0.1936 -0.3694 -0.6449
17770THY    HA434721   8.888   3.506   7.082  1.2533 -0.2276 -2.3236
17770THY    CA534722   9.088   3.518   6.999 -0.1013 -0.6530  0.0829
17770THY    CM134723   9.139   3.421   7.102 -0.4173  0.0269  0.2037
17770THY    HM134724   9.195   3.344   7.047 -0.0160 -1.4410  1.4878
17770THY    HM234725   9.058   3.370   7.155 -0.3428 -1.1064 -1.1706
17770THY    HM334726   9.201   3.468   7.179 -0.4544  0.0569  0.2028
17770THY    CA634727   9.163   3.570   6.894  0.3474 -0.3871  0.6826
17770THY    HA634728   9.269   3.549   6.888  0.2998 -1.6590  0.7530
17771THY      O34729   0.513   2.145   6.773 -0.0473  0.5435  0.0913
17771THY     HO34730   0.430   2.145   6.824  0.2834  1.0895 -0.6953
17771THY    CA134731   0.608   2.116   6.863  0.3777 -0.9150  0.0141
17771THY    CA234732   0.731   2.079   6.819  0.0437 -0.1680 -0.4816
17771THY    CP134733   0.770   2.088   6.672  0.5415  0.4874  0.7457
17771THY    HP134734   0.681   2.121   6.618 -0.6773  1.4159 -0.8685
17771THY    CP234735   0.786   1.945   6.622 -0.4545  0.6979 -0.4772
17771THY    HP234736   0.871   1.895   6.670 -0.4177 -1.0096 -2.1622
17771THY    HP334737   0.788   1.956   6.513 -2.4441  0.8667  2.8185
17771THY    HP434738   0.697   1.889   6.651 -0.0999 -0.8182 -1.9052
17771THY    CP334739   0.888   2.183   6.635  0.1351  0.0376  0.3796
17771THY    HP534740   0.917   2.153   6.533 -0.1400  0.4666 -1.4515
17771THY    HP634741   0.971   2.169   6.704  1.3632 -1.8329 -2.8936
17771THY    HP734742   0.848   2.284   6.645  0.4619  2.5302  0.3011
17771THY    CA334743   0.824   2.035   6.919  0.3241 -0.7944  0.0895
17771THY    HA334744   0.921   1.994   6.890  0.2310 -0.2015 -0.5741
17771THY    CA434745   0.789   2.033   7.052  0.0858 -0.4386 -0.4062
17771THY    HA434746   0.863   1.997   7.123  0.1888 -1.0076 -1.3724
17771THY    CA534747   0.659   2.072   7.089 -0.8140 -0.9060  0.1842
17771THY    CM134748   0.613   2.055   7.233 -0.5963 -0.3120 -0.1896
17771THY    HM134749   0.665   2.102   7.317 -0.8433 -0.3252  0.1073
17771THY    HM234750   0.620   1.952   7.272  1.8165  2.1519  0.7798
17771THY    HM334751   0.509   2.088   7.240 -0.3147  2.1199  0.3577
17771THY    CA634752   0.573   2.114   6.995  0.0770 -0.0414 -0.2247
17771THY    HA634753   0.469   2.134   7.018 -0.0847 -2.2154  1.9280
17772THY      O34754   7.565   5.099   6.141  0.0872  0.2301  0.4249
17772THY     HO34755   7.566   5.017   6.193  1.2428  0.1814  0.3830
17772THY    CA134756   7.488   5.089   6.037 -0.5171  0.7103  0.1640
17772THY    CA234757   7.420   5.200   5.986  0.6726 -0.6969 -0.4503
17772THY    CP134758   7.438   5.348   6.026 -0.5019 -0.8846  0.3417
17772THY    HP134759   7.496   5.358   6.119 -1.8765  0.2356 -1.4238
17772THY    CP234760   7.306   5.405   6.064 -0.2495  0.1724 -0.4074
17772THY    HP234761   7.262   5.455   5.977 -2.5858  1.3104 -0.3005
17772THY    HP334762   7.317   5.480   6.144 -1.9655 -1.1095  1.3035
17772THY    HP434763   7.239   5.324   6.096  0.6567 -1.3359 -1.8098
17772THY    CP334764   7.515   5.426   5.916 -0.0508  0.5300 -0.2495
17772THY    HP534765   7.616   5.385   5.900 -0.3361  0.5301 -0.9705
17772THY    HP634766   7.520   5.534   5.935  0.2857  0.3412 -0.2318
17772THY    HP734767   7.469   5.423   5.817  0.7957  0.1358 -2.6900
17772THY    CA334768   7.322   5.178   5.886  0.9479 -0.2636  0.1160
17772THY    HA334769   7.268   5.263   5.845  0.5973  1.3395  0.6961
17772THY    CA434770   7.305   5.050   5.830 -0.1300  0.6240 -0.4180
17772THY    HA434771   7.219   5.038   5.764 -0.1460 -0.1152  2.7390
17772THY    CA534772   7.377   4.941   5.887  0.2277 -0.8154  0.0334
17772THY    CM134773   7.352   4.794   5.848 -0.1346  0.6465  0.4756
17772THY    HM134774   7.440   4.749   5.801  0.4586  0.3261  1.9103
17772THY    HM234775   7.275   4.789   5.770  1.1808 -0.6928  0.4974
17772THY    HM334776   7.324   4.732   5.935  0.6936  0.5690 -0.0251
17772THY    CA634777   7.472   4.959   5.985 -0.1582 -0.9263  0.6590
17772THY    HA634778   7.522   4.873   6.028  2.2800  0.4054  2.5954
17773THY      O34779   2.693   5.985   5.495 -0.2770  0.3835  0.1048
17773THY     HO34780   2.759   6.030   5.552  3.2961 -0.9753 -2.9414
17773THY    CA134781   2.779   5.930   5.407 -0.1091 -0.0585  0.0608
17773THY    CA234782   2.755   5.941   5.271  0.3134  0.2897 -0.1338
17773THY    CP134783   2.617   5.999   5.215 -0.0958  0.6576  0.2047
17773THY    HP134784   2.554   6.037   5.297 -2.3510 -0.5048 -0.8051
17773THY    CP234785   2.533   5.892   5.139  0.5317  0.1428  0.3515
17773THY    HP234786   2.587   5.831   5.065  0.0155 -1.8159  2.1350
17773THY    HP334787   2.440   5.925   5.090  0.0886 -2.1962 -3.7230
17773THY    HP434788   2.504   5.817   5.213  2.6723  0.3591 -0.3218
17773THY    CP334789   2.647   6.112   5.118  0.7789  0.2878 -0.5205
17773THY    HP534790   2.703   6.085   5.028 -0.8215 -0.8441 -0.2497
17773THY    HP634791   2.704   6.189   5.171 -1.3506  0.5706  0.9349
17773THY    HP734792   2.553   6.158   5.086 -0.2201  0.3560 -2.3972
17773THY    CA334793   2.859   5.898   5.190  0.8026 -0.2166  0.6758
17773THY    HA334794   2.849   5.916   5.083  1.3020 -0.3747  0.0529
17773THY    CA434795   2.988   5.862   5.238  0.1181  0.8457  0.1465
17773THY    HA434796   3.068   5.840   5.169 -0.1098  0.4158  0.6413
17773THY    CA534797   3.007   5.854   5.375 -0.0435  0.8363  0.1847
17773THY    CM134798   3.135   5.816   5.432  0.0681 -0.1442 -0.6517
17773THY    HM134799   3.190   5.909   5.444 -0.7429 -0.7399 -0.0828
17773THY    HM234800   3.186   5.745   5.366  1.4075 -0.4434  0.5670
17773THY    HM334801   3.118   5.777   5.534 -1.5109 -0.0231  0.2532
17773THY    CA634802   2.898   5.883   5.457 -0.1384  0.4440  0.3091
17773THY    HA634803   2.912   5.878   5.565 -2.7607  0.8496  0.3654
17774THY      O34804   2.718   3.303   7.466  0.1656 -0.2654 -0.0750
17774THY     HO34805   2.627   3.331   7.487  0.5877  0.1883  1.0195
17774THY    CA134806   2.742   3.217   7.568 -0.1305  0.0380 -0.2638
17774THY    CA234807   2.873   3.187   7.610  0.3482 -0.3286 -0.2840
17774THY    CP134808   2.989   3.249   7.536 -0.2245  0.2592 -0.0319
17774THY    HP134809   2.966   3.337   7.475 -1.3810 -1.5679 -1.5091
17774THY    CP234810   3.054   3.146   7.444  0.1112  0.3766 -0.1939
17774THY    HP234811   3.112   3.077   7.507 -1.9175  1.2302 -1.2048
17774THY    HP334812   3.125   3.195   7.377  1.5418  2.4215  0.6545
17774THY    HP434813   2.980   3.092   7.383 -1.4862 -0.4811  2.7457
17774THY    CP334814   3.078   3.309   7.634  0.0486 -0.1920  0.0196
17774THY    HP534815   3.022   3.371   7.706 -0.4203 -0.4338 -0.1190
17774THY    HP634816   3.154   3.374   7.590  1.3012  2.4851  0.4928
17774THY    HP734817   3.141   3.236   7.686  2.7203 -1.1865  1.4879
17774THY    CA334818   2.896   3.096   7.713 -0.1781  0.2677  0.3372
17774THY    HA334819   2.994   3.075   7.755 -1.0407  1.9766 -0.3669
17774THY    CA434820   2.781   3.045   7.778 -0.1408  0.0462 -0.5266
17774THY    HA434821   2.792   2.976   7.861  0.8171 -0.0760 -0.5261
17774THY    CA534822   2.652   3.061   7.725 -0.2040  0.0507 -0.4613
17774THY    CM134823   2.527   3.001   7.794 -0.4239  0.1036  0.1373
17774THY    HM134824   2.456   2.959   7.721 -1.3391  0.6521  0.6995
17774THY    HM234825   2.485   3.082   7.854  2.6681 -1.1811  2.9377
17774THY    HM334826   2.560   2.920   7.860 -0.5823 -0.9544 -0.8293
17774THY    CA634827   2.633   3.151   7.616  0.2213 -0.4642 -0.4403
17774THY    HA634828   2.527   3.163   7.595 -0.6520  2.7682 -1.2424
17775THY      O34829   8.531   6.932   7.414 -0.4076  0.0370 -0.2582
17775THY     HO34830   8.605   6.899   7.468  1.3616 -2.8098 -1.2542
17775THY    CA134831   8.552   7.061   7.398  0.3182 -0.6590  0.1400
17775THY    CA234832   8.460   7.157   7.357  0.2360  0.0912 -0.0948
17775THY    CP134833   8.323   7.118   7.321  0.0532  0.6274  0.1132
17775THY    HP134834   8.299   7.013   7.342  1.1954 -1.4788 -0.6239
17775THY    CP234835   8.312   7.129   7.169  0.0407 -0.5643 -0.2498
17775THY    HP234836   8.220   7.078   7.139 -1.2282 -1.9378  2.6195
17775THY    HP334837   8.393   7.080   7.113  0.1555 -0.3278 -0.3281
17775THY    HP434838   8.300   7.235   7.143  1.8284 -0.3604  0.0447
17775THY    CP334839   8.215   7.201   7.382 -0.2445 -0.6183  0.4395
17775THY    HP534840   8.229   7.170   7.486  1.0794 -1.8407 -3.6831
17775THY    HP634841   8.116   7.162   7.353 -0.1854 -1.0035  0.5654
17775THY    HP734842   8.218   7.308   7.360  1.7891 -0.5191  0.4384
17775THY    CA334843   8.506   7.296   7.354  0.6961 -0.7716  0.3132
17775THY    HA334844   8.442   7.376   7.319 -1.5875  1.7598 -0.2705
17775THY    CA434845   8.635   7.331   7.397  0.3923 -0.5342  0.1747
17775THY    HA434846   8.656   7.438   7.401  0.2765  1.9685  0.1568
17775THY    CA534847   8.726   7.235   7.433 -0.3432 -0.2958  0.5163
17775THY    CM134848   8.864   7.262   7.452  0.8992  0.1161 -0.6768
17775THY    HM134849   8.894   7.367   7.465 -1.1491  1.6652 -0.2186
17775THY    HM234850   8.925   7.243   7.363  1.4255  0.1385  0.7614
17775THY    HM334851   8.905   7.210   7.539  0.0033  0.6558 -0.5089
17775THY    CA634852   8.687   7.101   7.431  0.6022  0.2756  0.0322
17775THY    HA634853   8.752   7.026   7.476 -0.8499  2.3739 -0.0724
17776THY      O34854   3.577   5.794   7.601 -0.3727 -0.5131 -0.1492
17776THY     HO34855   3.498   5.817   7.549 -1.1800  0.6502 -0.1430
17776THY    CA134856   3.671   5.887   7.588  0.1465  0.3029  0.6738
17776THY    CA234857   3.806   5.848   7.587 -0.2651  0.0261 -0.5683
17776THY    CP134858   3.848   5.700   7.608 -0.0734 -0.1955  0.4788
17776THY    HP134859   3.766   5.636   7.644 -0.0127  1.0034  1.0518
17776THY    CP234860   3.962   5.683   7.711 -0.6000  0.1008  0.2748
17776THY    HP234861   3.950   5.596   7.776 -1.6188  0.0997  0.4067
17776THY    HP334862   3.970   5.773   7.774  1.4433  0.2511  0.0225
17776THY    HP434863   4.059   5.682   7.660  0.4936  1.9807  2.0816
17776THY    CP334864   3.896   5.644   7.472 -0.0358  1.1016  0.3983
17776THY    HP534865   3.947   5.550   7.495 -0.4060  1.6133  0.3228
17776THY    HP634866   3.965   5.715   7.424 -1.7437  0.5235  1.7501
17776THY    HP734867   3.812   5.634   7.403 -0.4951  1.5632  0.9859
17776THY    CA334868   3.908   5.941   7.562  0.0133  0.6792 -0.3158
17776THY    HA334869   4.012   5.911   7.550  0.6868  2.2381  1.2494
17776THY    CA434870   3.867   6.067   7.536 -0.7809  0.8853 -0.2402
17776THY    HA434871   3.941   6.144   7.515 -2.1335  0.7323  1.0563
17776THY    CA534872   3.731   6.107   7.539  1.0770  0.1874  0.3437
17776THY    CM134873   3.691   6.248   7.503 -0.0847 -0.3757 -0.6069
17776THY    HM134874   3.771   6.297   7.446 -0.4525 -1.9007 -1.6872
17776THY    HM234875   3.666   6.298   7.597 -2.9577  0.8082 -3.8571
17776THY    HM334876   3.610   6.260   7.429  1.3935 -1.7597  1.7398
17776THY    CA634877   3.629   6.016   7.563 -0.2368 -0.1482  0.2009
17776THY    HA634878   3.526   6.050   7.560  0.0638  2.0243  1.4644
17777THY      O34879   3.774   5.822   7.018  0.4381  0.1725 -0.1121
17777THY     HO34880   3.785   5.726   7.010 -2.2259 -2.3422 -0.3177
17777THY    CA134881   3.885   5.883   6.978  0.9703  0.1501 -0.1268
17777THY    CA234882   3.885   6.022   6.969 -1.0062  1.5466 -0.4791
17777THY    CP134883   3.768   6.101   7.036  0.1538 -0.4783  0.1111
17777THY    HP134884   3.670   6.054   7.023 -0.2833  1.2874  0.4762
17777THY    CP234885   3.757   6.242   6.975  0.1808  0.3803  0.0454
17777THY    HP234886   3.731   6.232   6.869  1.7479 -0.0697  0.4810
17777THY    HP334887   3.839   6.312   6.987 -1.0350  2.6922  1.1849
17777THY    HP434888   3.668   6.295   7.012  0.5389 -0.2852  1.1190
17777THY    CP334889   3.790   6.105   7.183  0.4854 -0.1036 -0.3499
17777THY    HP534890   3.869   6.174   7.213 -0.5050  1.1688  0.2664
17777THY    HP634891   3.829   6.008   7.217 -0.2509 -1.2553 -1.0808
17777THY    HP734892   3.700   6.127   7.241  1.4630  0.2787  3.1267
17777THY    CA334893   4.005   6.086   6.919  0.5422 -0.2518 -0.0914
17777THY    HA334894   4.020   6.193   6.922 -0.3215 -0.3209  0.0348
17777THY    CA434895   4.116   6.001   6.898 -0.8122 -0.7043 -0.3157
17777THY    HA434896   4.212   6.048   6.879  0.1812  1.3818 -1.3646
17777THY    CA534897   4.117   5.866   6.925  1.1397 -0.1663 -0.5191
17777THY    CM134898   4.242   5.784   6.925 -0.4766 -0.3820 -0.1081
17777THY    HM134899   4.242   5.674   6.924  1.0165 -1.5056 -0.1255
17777THY    HM234900   4.312   5.815   7.003 -1.4390  0.2226  0.6064
17777THY    HM334901   4.281   5.814   6.827 -0.2346 -0.7402 -1.5047
17777THY    CA634902   3.999   5.809   6.970 -0.0573  0.2862 -0.1716
17777THY    HA634903   4.003   5.700   6.973  4.7513 -1.5185 -0.2850
17778THY      O34904   7.617   8.443   4.029 -0.6040  0.1707  0.3375
17778THY     HO34905   7.643   8.372   4.091  0.2941 -3.7953 -3.2176
17778THY    CA134906   7.497   8.407   3.973 -0.1752 -0.7657  0.2510
17778THY    CA234907   7.422   8.505   3.905 -0.6995 -0.3331  0.1838
17778THY    CP134908   7.471   8.651   3.915 -0.0301 -0.1928 -0.6188
17778THY    HP134909   7.579   8.645   3.896 -0.2230 -1.1431 -1.4886
17778THY    CP234910   7.445   8.722   4.056  0.3549 -0.2023 -0.2381
17778THY    HP234911   7.495   8.657   4.129  0.1828 -1.3388 -1.7099
17778THY    HP334912   7.336   8.722   4.064  0.3338 -0.2993 -1.2354
17778THY    HP434913   7.487   8.823   4.059 -0.3915 -1.1402  0.1134
17778THY    CP334914   7.427   8.749   3.805  0.1902 -0.2678 -0.4740
17778THY    HP534915   7.320   8.765   3.821  0.6632  0.3978  2.4923
17778THY    HP634916   7.438   8.707   3.704  0.3438  0.2967 -1.8696
17778THY    HP734917   7.480   8.845   3.805  0.7439  0.5740 -0.7618
17778THY    CA334918   7.313   8.459   3.827  0.5285  0.7333 -0.1569
17778THY    HA334919   7.248   8.528   3.776  0.9904 -0.3406 -0.4842
17778THY    CA434920   7.287   8.325   3.820 -0.2663 -0.2214 -0.6371
17778THY    HA434921   7.215   8.291   3.747 -1.6158 -0.4141  2.3172
17778THY    CA534922   7.355   8.237   3.897 -0.0306  0.0327  0.3169
17778THY    CM134923   7.343   8.089   3.889 -0.3996 -0.6280  0.1167
17778THY    HM134924   7.437   8.046   3.854 -1.2832 -3.0707 -0.0110
17778THY    HM234925   7.273   8.062   3.808  0.3057 -1.4882  0.8168
17778THY    HM334926   7.312   8.045   3.984  0.9059 -1.0753 -1.8796
17778THY    CA634927   7.462   8.276   3.979 -0.6114  0.4847  0.3024
17778THY    HA634928   7.519   8.199   4.030  0.1350 -1.4880 -0.5225
17779THY      O34929   2.826   1.706   3.856  0.0165 -0.1906  0.1147
17779THY     HO34930   2.772   1.776   3.897 -1.6769 -0.0262 -1.1984
17779THY    CA134931   2.751   1.601   3.897  0.3614  0.3893 -0.0730
17779THY    CA234932   2.799   1.469   3.907 -0.4852 -0.2754 -0.1028
17779THY    CP134933   2.945   1.443   3.877 -0.4207  0.3448  0.0212
17779THY    HP134934   2.993   1.537   3.906  0.4380  1.5875 -0.7680
17779THY    CP234935   2.950   1.420   3.727  0.0560 -0.7270  0.3044
17779THY    HP234936   3.054   1.402   3.694  0.2939  0.0689  0.1689
17779THY    HP334937   2.914   1.507   3.671  2.8874 -0.6717  1.6267
17779THY    HP434938   2.893   1.329   3.704  0.9434  0.4427 -0.5926
17779THY    CP334939   3.002   1.326   3.955 -0.6031 -0.9206 -0.0387
17779THY    HP534940   2.979   1.232   3.904 -1.7611 -0.3290 -0.1061
17779THY    HP634941   2.963   1.328   4.058 -0.1021 -0.7232 -0.3228
17779THY    HP734942   3.111   1.330   3.959 -0.6715  1.0764  1.4893
17779THY    CA334943   2.709   1.366   3.937  0.9655 -0.7982 -0.0404
17779THY    HA334944   2.750   1.265   3.932  0.7948 -2.7938 -0.0582
17779THY    CA434945   2.572   1.393   3.954 -0.0845 -0.1264 -0.0748
17779THY    HA434946   2.499   1.313   3.962  0.0955 -2.8802 -0.6134
17779THY    CA534947   2.534   1.526   3.952  0.3610 -0.0093 -0.2787
17779THY    CM134948   2.383   1.545   3.971 -0.2755  0.5019  0.2876
17779THY    HM134949   2.338   1.495   4.057  0.6611  0.1773 -1.1794
17779THY    HM234950   2.335   1.497   3.885 -0.0296  0.8220 -0.5501
17779THY    HM334951   2.352   1.649   3.984  2.5827  0.2620  1.2651
17779THY    CA634952   2.622   1.633   3.933  0.4766  0.0104  0.2149
17779THY    HA634953   2.591   1.735   3.912  0.1444 -0.8777 -0.0659
17780THY      O34954   5.395   8.178   6.855 -0.3575  0.3383 -0.4445
17780THY     HO34955   5.481   8.201   6.815 -1.1112 -0.7466  0.6270
17780THY    CA134956   5.297   8.217   6.758  0.1350 -0.4187  0.0154
17780THY    CA234957   5.169   8.157   6.759  0.9239  0.4116  0.0731
17780THY    CP134958   5.131   8.063   6.877  0.8364 -0.0414  0.5040
17780THY    HP134959   5.168   8.097   6.975  0.9107 -0.4016  1.4837
17780THY    CP234960   5.172   7.922   6.846 -0.8724 -0.2333  0.2645
17780THY    HP234961   5.147   7.849   6.923 -3.6698 -1.0836  0.1892
17780THY    HP334962   5.281   7.927   6.848 -0.8698  1.4282 -0.0622
17780THY    HP434963   5.120   7.895   6.753 -0.3416 -0.4127 -0.1678
17780THY    CP334964   4.981   8.062   6.900 -0.9420 -0.2418 -0.1888
17780THY    HP534965   4.964   8.001   6.990  1.2312  1.4050  1.4525
17780THY    HP634966   4.928   8.016   6.816 -1.0448  0.8920 -2.2471
17780THY    HP734967   4.941   8.162   6.923  0.4463 -0.3761  0.4239
17780THY    CA334968   5.086   8.183   6.643  0.2355 -0.2038  0.2849
17780THY    HA334969   4.986   8.139   6.639  0.6711 -0.2830 -0.7426
17780THY    CA434970   5.137   8.269   6.542  0.2787 -0.4756  0.0879
17780THY    HA434971   5.070   8.284   6.458 -0.8386  0.3001 -0.4174
17780THY    CA534972   5.262   8.330   6.548 -0.2805 -0.2759  0.1883
17780THY    CM134973   5.308   8.423   6.440 -0.1779 -0.4952 -0.6106
17780THY    HM134974   5.392   8.483   6.477 -0.3464 -1.9017  0.5416
17780THY    HM234975   5.224   8.485   6.407 -0.0087  0.6727  0.2836
17780THY    HM334976   5.336   8.369   6.349 -0.1366  0.4216 -2.2008
17780THY    CA634977   5.337   8.306   6.664 -0.5357 -0.0501  0.4602
17780THY    HA634978   5.430   8.361   6.675 -1.0633  1.3245  1.1120
17781THY      O34979   5.049   8.296   7.652  0.7894  0.1239 -0.4295
17781THY     HO34980   4.990   8.232   7.610 -0.5262  0.1783  0.7115
17781THY    CA134981   5.157   8.317   7.571 -0.6639  1.0471 -0.0672
17781THY    CA234982   5.268   8.395   7.606  0.3310  0.0522 -0.3398
17781THY    CP134983   5.272   8.463   7.748  0.7578  0.0078 -0.4480
17781THY    HP134984   5.191   8.417   7.807 -3.9785 -0.9304  5.4325
17781THY    CP234985   5.255   8.612   7.741  0.4191  0.4303 -0.0481
17781THY    HP234986   5.152   8.623   7.705  0.2360  1.3812  1.6102
17781THY    HP334987   5.335   8.645   7.674  0.0462  0.4402  0.9107
17781THY    HP434988   5.263   8.650   7.843  1.2922  0.6290 -0.7361
17781THY    CP334989   5.406   8.439   7.832 -0.3237  0.6090  0.2385
17781THY    HP534990   5.485   8.463   7.759  1.8469  2.8493  0.3519
17781THY    HP634991   5.423   8.332   7.849  1.1722 -0.2638  0.2984
17781THY    HP734992   5.411   8.505   7.919  0.3638  0.5424  0.2848
17781THY    CA334993   5.373   8.411   7.514 -0.1147  0.5235  0.0511
17781THY    HA334994   5.461   8.469   7.540  0.3857 -0.3344 -0.2963
17781THY    CA434995   5.367   8.366   7.385  0.0399 -0.4892 -0.1085
17781THY    HA434996   5.449   8.378   7.315  0.3659 -0.3686 -1.4981
17781THY    CA534997   5.249   8.296   7.349 -0.1611  0.1751  0.7706
17781THY    CM134998   5.235   8.239   7.204 -0.1665 -0.4304  0.2079
17781THY    HM134999   5.279   8.307   7.131  1.7405 -0.2833 -0.7855
17781THY    HM235000   5.135   8.209   7.171 -0.1344 -0.5613  0.2447
17781THY    HM335001   5.287   8.143   7.193 -0.6397 -1.0116  0.0137
17781THY    CA635002   5.156   8.263   7.445 -0.1038 -0.5146  0.2871
17781THY    HA635003   5.091   8.179   7.422  0.3261 -0.0408 -0.1855
17782THY      O35004   2.539   8.799   7.194 -0.3139  0.0491  0.6446
17782THY     HO35005   2.607   8.736   7.163 -1.6030 -1.3008 -0.1613
17782THY    CA135006   2.438   8.714   7.195 -0.2290 -1.1698 -0.2866
17782THY    CA235007   2.311   8.743   7.254 -0.2677 -0.5271  0.5392
17782THY    CP135008   2.291   8.881   7.310 -0.6665  0.9279  0.0813
17782THY    HP135009   2.371   8.906   7.381  0.5083  0.0883 -1.1343
17782THY    CP235010   2.159   8.895   7.381  0.7886 -0.1371  0.4031
17782THY    HP235011   2.138   9.001   7.400 -0.5680  0.9052 -0.0250
17782THY    HP335012   2.153   8.838   7.474 -0.9770  0.2107  1.0832
17782THY    HP435013   2.083   8.862   7.310  0.4566  0.0782  0.7021
17782THY    CP335014   2.295   8.988   7.196  0.4052 -0.3738  0.4603
17782THY    HP535015   2.206   8.984   7.132  1.3974 -1.7571 -0.5476
17782THY    HP635016   2.379   8.971   7.128  1.3782  0.4647  1.7402
17782THY    HP735017   2.318   9.088   7.234  1.9714 -1.9664  0.7647
17782THY    CA335018   2.212   8.637   7.255 -0.5720  1.1217  1.2160
17782THY    HA335019   2.114   8.646   7.301 -0.1992  2.7769 -1.8708
17782THY    CA435020   2.243   8.513   7.194 -0.3386  0.0918 -0.1531
17782THY    HA435021   2.165   8.438   7.185 -0.2692  0.0558 -0.2207
17782THY    CA535022   2.371   8.496   7.143  0.3470 -0.1438  0.1006
17782THY    CM135023   2.387   8.359   7.065 -0.2582 -0.1976 -0.4886
17782THY    HM135024   2.362   8.270   7.124  0.4686  0.2466 -0.4011
17782THY    HM235025   2.492   8.345   7.037 -0.0438  0.7814 -0.9385
17782THY    HM335026   2.326   8.366   6.974 -0.0360 -0.3590 -0.6335
17782THY    CA635027   2.469   8.589   7.142  0.0307 -0.2221 -0.1712
17782THY    HA635028   2.560   8.568   7.087 -0.3802 -1.0246  0.1192
17783THY      O35029   6.392   7.065   7.414 -0.2120 -0.2765  0.6175
17783THY     HO35030   6.372   7.154   7.446  2.4501  1.6494  0.6447
17783THY    CA135031   6.320   7.041   7.301 -0.2915  0.3213 -0.7726
17783THY    CA235032   6.251   6.922   7.274  0.7220  0.1159  0.5879
17783THY    CP135033   6.256   6.808   7.377 -0.3887 -0.4321  0.2943
17783THY    HP135034   6.267   6.837   7.482  0.6801 -0.0847 -1.2476
17783THY    CP235035   6.371   6.711   7.341 -0.5107 -0.3250  1.1972
17783THY    HP235036   6.368   6.670   7.240  1.9895 -0.9435  2.3173
17783THY    HP335037   6.390   6.633   7.415  3.6491 -1.1234  1.1956
17783THY    HP435038   6.462   6.771   7.359  0.2408 -2.5222  0.8072
17783THY    CP335039   6.120   6.725   7.371 -0.6352 -0.3754  0.2687
17783THY    HP535040   6.028   6.781   7.393 -0.6224 -1.5566  0.7814
17783THY    HP635041   6.109   6.655   7.455  1.4581  1.0347  1.5135
17783THY    HP735042   6.110   6.676   7.274  0.7634 -1.4851  2.0700
17783THY    CA335043   6.207   6.903   7.140 -0.1503  0.4650  0.1050
17783THY    HA335044   6.153   6.812   7.117 -0.1782  1.1153 -0.0443
17783THY    CA435045   6.216   7.007   7.042 -0.6813  0.1233 -0.3223
17783THY    HA435046   6.184   6.991   6.940 -2.5228  0.8555 -1.6483
17783THY    CA535047   6.280   7.130   7.079 -0.5448  0.1107 -0.0828
17783THY    CM135048   6.309   7.241   6.977  0.0312  0.0819 -0.6782
17783THY    HM135049   6.404   7.230   6.924 -0.6547 -1.4547  0.4325
17783THY    HM235050   6.312   7.340   7.022  2.0168 -1.4804  0.0438
17783THY    HM335051   6.233   7.237   6.897 -0.3036  0.3564  0.0184
17783THY    CA635052   6.326   7.145   7.208 -0.1281 -0.7184  0.3131
17783THY    HA635053   6.384   7.233   7.231 -0.1632 -1.9997  0.6817
17784THY      O35054   9.551   1.965   3.201 -0.0331  0.0691 -0.1131
17784THY     HO35055   9.559   2.062   3.200  2.4232 -1.4209 -0.2234
17784THY    CA135056   9.423   1.936   3.224  0.2345 -0.1279  0.0514
17784THY    CA235057   9.371   1.804   3.209 -0.4730 -1.2245 -0.1728
17784THY    CP135058   9.466   1.687   3.186  0.2156 -0.6817  0.2670
17784THY    HP135059   9.548   1.720   3.122  0.2074 -0.8922 -0.1103
17784THY    CP235060   9.405   1.571   3.095  0.7244 -0.9089  0.0495
17784THY    HP235061   9.356   1.622   3.012 -0.3183 -0.9935 -1.0379
17784THY    HP335062   9.329   1.509   3.145 -0.1368 -2.2811 -0.0414
17784THY    HP435063   9.476   1.497   3.057 -0.1632 -0.4196 -1.0917
17784THY    CP335064   9.520   1.617   3.311 -0.6108  0.9724 -0.3197
17784THY    HP535065   9.433   1.596   3.374 -1.3873  0.4285  1.0395
17784THY    HP635066   9.589   1.687   3.359 -1.1965  0.4132  0.6673
17784THY    HP735067   9.569   1.523   3.283 -0.5139  0.0715 -0.0191
17784THY    CA335068   9.229   1.781   3.219 -0.0094 -0.6882 -0.6037
17784THY    HA335069   9.183   1.684   3.206  0.3386 -0.1240 -0.8530
17784THY    CA435070   9.148   1.893   3.238 -0.4025  0.1517 -0.0613
17784THY    HA435071   9.041   1.884   3.248 -0.3841  1.2728  0.7662
17784THY    CA535072   9.201   2.021   3.259 -0.4718 -0.4437  0.7442
17784THY    CM135073   9.115   2.139   3.266 -0.1140 -0.2925 -0.6095
17784THY    HM135074   9.005   2.137   3.263 -0.3144 -0.2220  2.9096
17784THY    HM235075   9.148   2.191   3.175  1.1708 -1.2619 -2.9739
17784THY    HM335076   9.148   2.195   3.354  0.6799  0.7546 -2.6336
17784THY    CA635077   9.342   2.042   3.257 -0.3136  0.1691 -0.7452
17784THY    HA635078   9.378   2.145   3.260 -1.1603 -0.7462 -0.4005
17785THY      O35079   5.677   2.535   5.518 -0.1425 -0.4701 -0.0764
17785THY     HO35080   5.741   2.464   5.499  1.6477  2.1736  0.6821
17785THY    CA135081   5.688   2.545   5.653  1.1163 -0.4378 -0.2440
17785THY    CA235082   5.570   2.577   5.726  1.5650 -0.4136 -0.3566
17785THY    CP135083   5.438   2.609   5.647  0.2490  0.3205 -0.4753
17785THY    HP135084   5.460   2.635   5.543 -0.0872  1.0880  3.5051
17785THY    CP235085   5.356   2.738   5.691 -0.4624 -0.5265 -0.2120
17785THY    HP235086   5.335   2.737   5.799 -1.3932 -0.6740  1.4914
17785THY    HP335087   5.259   2.742   5.642 -0.6945 -0.0101  0.6478
17785THY    HP435088   5.420   2.824   5.670 -1.9748  1.7098  1.5648
17785THY    CP335089   5.348   2.493   5.655  0.6096  0.2563  0.4080
17785THY    HP535090   5.312   2.480   5.758  2.1295  0.8333  0.5476
17785THY    HP635091   5.397   2.395   5.642  1.1311 -0.1118  0.7141
17785THY    HP735092   5.263   2.507   5.588 -0.3418  1.4863  0.6906
17785THY    CA335093   5.571   2.580   5.868 -0.1868 -0.3585  0.1931
17785THY    HA335094   5.477   2.604   5.916 -0.0455 -0.3819  0.8121
17785THY    CA435095   5.688   2.538   5.934 -0.1297 -0.5983 -0.2706
17785THY    HA435096   5.686   2.537   6.043 -0.9184 -0.6036  0.0912
17785THY    CA535097   5.805   2.505   5.860 -0.5238  0.1547  0.2938
17785THY    CM135098   5.926   2.454   5.933  1.2962  0.7258 -0.2081
17785THY    HM135099   5.905   2.449   6.040 -0.1426  0.4894  0.3162
17785THY    HM235100   6.012   2.518   5.910  1.0417  2.7570  0.9547
17785THY    HM335101   5.952   2.353   5.899 -0.8810 -0.3890 -0.4635
17785THY    CA635102   5.805   2.512   5.722 -0.4501 -0.0775  0.2125
17785THY    HA635103   5.890   2.472   5.667 -0.1465 -0.0470  0.8063
17786THY      O35104   3.087   4.109   2.701  0.3971 -0.2870  0.9161
17786THY     HO35105   3.015   4.053   2.669  0.4288  0.1036  0.6475
17786THY    CA135106   3.117   4.052   2.825 -0.3931  0.7712 -0.3331
17786THY    CA235107   3.194   4.110   2.924  0.5380 -0.0079 -0.5304
17786THY    CP135108   3.247   4.250   2.905 -0.2794 -0.4509 -0.0818
17786THY    HP135109   3.302   4.244   2.810  0.6141  0.1325 -1.8974
17786THY    CP235110   3.360   4.297   3.008  0.0779  0.4367  0.2570
17786THY    HP235111   3.441   4.223   3.012  0.6054  0.3079  0.8199
17786THY    HP335112   3.324   4.315   3.109  0.0119  0.4728 -0.0698
17786THY    HP435113   3.393   4.399   2.987 -1.2195  1.0767  0.8228
17786THY    CP335114   3.134   4.356   2.897 -0.3256  0.3157 -1.0562
17786THY    HP535115   3.101   4.385   2.998 -0.5749 -0.3177  1.0112
17786THY    HP635116   3.036   4.320   2.866 -0.2268 -0.5759 -0.5715
17786THY    HP735117   3.167   4.443   2.840 -2.7166  0.2545 -0.1183
17786THY    CA335118   3.220   4.048   3.043 -0.0976 -0.2159  0.0240
17786THY    HA335119   3.278   4.097   3.119 -0.0550 -0.7178  0.7636
17786THY    CA435120   3.170   3.918   3.061  0.6525 -1.3287  0.6315
17786THY    HA435121   3.190   3.861   3.151 -2.4325 -0.2891  1.0120
17786THY    CA535122   3.092   3.856   2.970 -0.4541  0.3320 -0.2205
17786THY    CM135123   3.056   3.715   2.985 -0.5995  0.2288  0.8635
17786THY    HM135124   2.974   3.670   2.928 -0.0660 -1.0761  1.5011
17786THY    HM235125   3.036   3.702   3.092 -2.6825 -0.3352 -1.4255
17786THY    HM335126   3.140   3.649   2.962 -0.8484  4.0303 -1.0882
17786THY    CA635127   3.052   3.923   2.853 -0.0792  0.7205 -0.1482
17786THY    HA635128   2.986   3.873   2.783  1.7127 -0.4607 -0.9697
17787THY      O35129   1.370   4.654   3.340 -0.1412 -0.4593  0.6914
17787THY     HO35130   1.457   4.666   3.297 -0.4979 -1.7234 -1.0225
17787THY    CA135131   1.291   4.667   3.230  0.1485  0.4888  0.2960
17787THY    CA235132   1.156   4.644   3.246  0.0150 -0.3840 -0.9910
17787THY    CP135133   1.092   4.605   3.380 -0.2770 -0.4440 -0.0221
17787THY    HP135134   1.162   4.571   3.458  1.7415 -1.6027  1.2716
17787THY    CP235135   0.987   4.486   3.360 -0.3943  0.3047 -0.2566
17787THY    HP235136   0.892   4.527   3.322 -0.9564  0.3665 -1.4568
17787THY    HP335137   0.971   4.430   3.452  2.5666  0.2731 -1.3096
17787THY    HP435138   1.026   4.409   3.293  1.9653  1.4184 -0.1020
17787THY    CP335139   1.026   4.728   3.444  0.3054 -0.3179 -0.0930
17787THY    HP535140   0.967   4.698   3.531  0.3198  0.0429  0.8767
17787THY    HP635141   0.949   4.770   3.377  0.0214  0.9951  1.5985
17787THY    HP735142   1.100   4.803   3.472 -0.0773  0.3741  0.0368
17787THY    CA335143   1.075   4.657   3.134 -0.3310  0.6924  0.0024
17787THY    HA335144   0.969   4.646   3.151  0.1204  3.0280 -1.4666
17787THY    CA435145   1.132   4.681   3.003 -0.5511 -0.3865  0.5558
17787THY    HA435146   1.070   4.702   2.917  0.2930 -1.9921 -2.7870
17787THY    CA535147   1.266   4.705   2.995 -1.0799  0.4632 -0.5587
17787THY    CM135148   1.327   4.752   2.867  0.3286  0.9185  0.7857
17787THY    HM135149   1.420   4.696   2.851 -0.3135 -0.9743  0.1996
17787THY    HM235150   1.362   4.856   2.878  1.9520  2.5565  0.1392
17787THY    HM335151   1.258   4.729   2.785 -0.4152  1.5757  0.6163
17787THY    CA635152   1.348   4.703   3.107  0.5802 -0.3659  0.1297
17787THY    HA635153   1.453   4.727   3.096  1.1662  1.7765 -1.1662
17788THY      O35154   6.172   3.808   4.168  0.3204 -0.0857 -0.4600
17788THY     HO35155   6.165   3.830   4.262 -2.1152 -0.3588  0.2624
17788THY    CA135156   6.071   3.871   4.103  0.1518  0.1873  0.3090
17788THY    CA235157   6.075   3.880   3.964  0.2183 -0.3783  0.6404
17788THY    CP135158   6.181   3.810   3.878 -0.7572  0.1242  0.5033
17788THY    HP135159   6.281   3.814   3.923  0.2603 -1.9872  0.7587
17788THY    CP235160   6.214   3.874   3.736 -0.2452 -0.1993  0.2794
17788THY    HP235161   6.306   3.831   3.696 -0.3973 -0.1706 -0.0787
17788THY    HP335162   6.242   3.980   3.746  1.3469 -0.9146 -0.0534
17788THY    HP435163   6.130   3.868   3.666 -0.8272  0.5884 -1.3042
17788THY    CP335164   6.129   3.666   3.842  0.0834 -0.0425 -0.1432
17788THY    HP535165   6.212   3.602   3.809  0.6063 -2.0465  1.4658
17788THY    HP635166   6.057   3.663   3.759  0.2696 -0.2282  0.4400
17788THY    HP735167   6.073   3.617   3.923 -1.0659  0.6787  2.2129
17788THY    CA335168   5.970   3.942   3.902  1.6957  0.2930  1.0587
17788THY    HA335169   5.963   3.935   3.794 -0.7273  0.4897 -2.0002
17788THY    CA435170   5.863   4.006   3.979  0.3828  0.5761 -0.1054
17788THY    HA435171   5.779   4.056   3.930 -0.1981  1.6494  0.0120
17788THY    CA535172   5.881   4.016   4.116 -0.1769 -0.1196 -0.1411
17788THY    CM135173   5.785   4.088   4.209  1.0466 -0.6190  0.8335
17788THY    HM135174   5.827   4.115   4.306  0.6422 -0.2647  0.2322
17788THY    HM235175   5.694   4.029   4.229  1.2061  2.0902  1.4035
17788THY    HM335176   5.756   4.181   4.159 -0.6968  0.8136  1.1111
17788THY    CA635177   5.975   3.936   4.180 -0.7544 -0.1913  0.4236
17788THY    HA635178   5.971   3.933   4.289 -1.7065 -0.0459  3.5444
17789THY      O35179   4.253   6.355   6.529 -0.6682  0.4071  0.5734
17789THY     HO35180   4.249   6.341   6.433 -1.2871  0.5435 -0.2016
17789THY    CA135181   4.342   6.270   6.580  0.2071  0.4936  0.7555
17789THY    CA235182   4.405   6.290   6.697  0.9919 -0.3370 -0.3988
17789THY    CP135183   4.380   6.424   6.778 -0.0743 -0.3279 -0.0369
17789THY    HP135184   4.303   6.478   6.722 -1.3799 -0.0224 -1.5392
17789THY    CP235185   4.515   6.508   6.781 -0.0578 -0.3819  0.0783
17789THY    HP235186   4.495   6.615   6.794 -2.6399 -2.7075 -0.0139
17789THY    HP335187   4.585   6.483   6.701  1.8412  2.0502 -3.3350
17789THY    HP435188   4.574   6.469   6.865  1.7309 -2.2838 -1.4977
17789THY    CP335189   4.329   6.398   6.919 -0.4492  0.1301 -0.8088
17789THY    HP535190   4.401   6.358   6.990  1.0314 -0.5549  0.5146
17789THY    HP635191   4.252   6.321   6.909  1.1055  0.0444 -2.3860
17789THY    HP735192   4.288   6.491   6.961 -1.7664  0.3548 -1.4717
17789THY    CA335193   4.494   6.195   6.747  0.2923  0.5197 -0.0438
17789THY    HA335194   4.537   6.196   6.847  1.7518 -0.0875  0.9974
17789THY    CA435195   4.529   6.085   6.665  0.3868  0.2527 -0.0632
17789THY    HA435196   4.599   6.008   6.694 -0.0252  0.2447 -0.4427
17789THY    CA535197   4.476   6.075   6.538 -0.4086  0.2394 -0.1314
17789THY    CM135198   4.515   5.961   6.439 -0.0404 -0.2618 -0.1498
17789THY    HM135199   4.455   5.870   6.446  1.6576  0.7226 -1.2365
17789THY    HM235200   4.617   5.924   6.452  0.8720 -1.6203  1.6695
17789THY    HM335201   4.515   5.994   6.334  0.2324 -0.7576 -1.6659
17789THY    CA635202   4.370   6.159   6.491  0.0216 -0.6106 -0.5202
17789THY    HA635203   4.326   6.153   6.392  1.0778 -1.3975  2.8942
17790THY      O35204   3.135   3.948   3.921  0.7019 -0.1710 -0.5784
17790THY     HO35205   3.204   3.965   3.855  2.0393  1.6142  1.3577
17790THY    CA135206   3.017   3.916   3.867  0.8323  0.2583  0.6030
17790THY    CA235207   2.919   3.852   3.941 -0.7149 -0.2586  0.7331
17790THY    CP135208   2.945   3.828   4.085  0.4016  0.2339  0.7209
17790THY    HP135209   3.017   3.904   4.118 -0.0627  1.8044  0.5249
17790THY    CP235210   2.998   3.687   4.099 -0.0038  0.0467 -0.3093
17790THY    HP235211   3.094   3.668   4.051 -0.1908 -0.5831  0.3067
17790THY    HP335212   2.919   3.615   4.076 -2.0886  0.0201  1.8643
17790THY    HP435213   3.029   3.672   4.203 -0.5845  0.2739  0.0300
17790THY    CP335214   2.821   3.837   4.167 -0.4515  0.2552  0.8456
17790THY    HP535215   2.756   3.921   4.140 -2.1257  2.5306  0.3844
17790THY    HP635216   2.847   3.857   4.272 -0.3459  0.0217  1.9986
17790THY    HP735217   2.762   3.746   4.150  0.0169 -1.6794  0.8568
17790THY    CA335218   2.808   3.810   3.871  0.8088  0.0198  0.1699
17790THY    HA335219   2.734   3.748   3.922  0.1335 -0.4182  0.6088
17790THY    CA435220   2.796   3.828   3.735 -0.1297  0.1141 -0.3116
17790THY    HA435221   2.708   3.798   3.678 -0.6322  0.7248 -0.0303
17790THY    CA535222   2.889   3.906   3.663  0.2063 -0.4750  0.0171
17790THY    CM135223   2.870   3.942   3.518 -0.2559  0.6862 -0.0038
17790THY    HM135224   2.906   4.040   3.486  0.0449 -0.0736 -0.3551
17790THY    HM235225   2.765   3.933   3.486  0.3474 -1.8589  1.1047
17790THY    HM335226   2.922   3.867   3.457 -1.8893  0.6953 -1.2066
17790THY    CA635227   3.002   3.945   3.731  0.3511  0.4030  0.2719
17790THY    HA635228   3.071   4.000   3.668 -0.7752 -0.2894  0.9252
17791THY      O35229   8.174   4.446   7.117  0.5972 -0.4132  0.3151
17791THY     HO35230   8.148   4.368   7.169 -1.3397 -1.2476  0.3613
17791THY    CA135231   8.123   4.553   7.189 -0.0394  0.1472 -0.1592
17791THY    CA235232   8.182   4.686   7.190  0.1259 -0.2281 -0.7282
17791THY    CP135233   8.305   4.720   7.108  0.1345 -0.6261  1.1385
17791THY    HP135234   8.369   4.631   7.108 -2.5819  0.2902 -0.9173
17791THY    CP235235   8.395   4.812   7.183 -0.4593 -0.1622  0.0470
17791THY    HP235236   8.492   4.803   7.132  1.1023  2.4706  0.5674
17791THY    HP335237   8.409   4.772   7.284  0.8499 -0.9529 -1.6082
17791THY    HP435238   8.373   4.919   7.188 -3.3467 -1.4855 -0.3964
17791THY    CP335239   8.270   4.781   6.969  0.3595  0.0794  0.6207
17791THY    HP535240   8.231   4.883   6.980 -0.2071 -0.8303  0.5113
17791THY    HP635241   8.208   4.708   6.917  1.0636  0.6899 -0.4309
17791THY    HP735242   8.357   4.779   6.901  0.8289  0.6832  0.2377
17791THY    CA335243   8.113   4.798   7.255 -0.5091 -0.1499  0.6584
17791THY    HA335244   8.155   4.898   7.256  0.3273 -1.5861  0.3475
17791THY    CA435245   8.014   4.762   7.346 -0.0572  0.2662 -0.2739
17791THY    HA435246   7.981   4.832   7.422 -0.3091 -0.2408  0.1626
17791THY    CA535247   7.967   4.635   7.352  0.7249  0.2085  0.0926
17791THY    CM135248   7.855   4.602   7.456  0.1949 -0.3594 -0.3776
17791THY    HM135249   7.775   4.677   7.461 -0.3402  2.9331 -0.9872
17791THY    HM235250   7.895   4.602   7.558  0.3780 -0.4303  0.1360
17791THY    HM335251   7.795   4.512   7.436 -0.0596 -2.4923  0.2119
17791THY    CA635252   8.010   4.532   7.269 -0.2567  0.6165 -0.5242
17791THY    HA635253   7.954   4.439   7.264  1.3443 -1.0730 -1.4691
17792THY      O35254   8.984   3.559   5.924  0.1328  0.5146  0.5716
17792THY     HO35255   9.066   3.531   5.969 -0.4246  2.3810  1.8091
17792THY    CA135256   9.004   3.662   5.834 -0.1758  0.5681 -0.1935
17792THY    CA235257   8.895   3.716   5.765 -0.6242  0.4383 -0.2097
17792THY    CP135258   8.757   3.654   5.773  0.0763  0.2269  0.1094
17792THY    HP135259   8.739   3.579   5.851 -1.3226 -2.0953 -2.1129
17792THY    CP235260   8.731   3.579   5.635  0.2513 -0.4222 -0.1328
17792THY    HP235261   8.631   3.535   5.633 -0.0577  0.8654  0.4404
17792THY    HP335262   8.797   3.492   5.629 -1.6020  1.3400 -1.7666
17792THY    HP435263   8.747   3.659   5.561  1.0413  0.8987  0.9749
17792THY    CP335264   8.654   3.759   5.796  0.6943 -0.1114  0.2028
17792THY    HP535265   8.554   3.714   5.796  1.0042 -0.8437 -0.5082
17792THY    HP635266   8.648   3.844   5.727 -1.7398  0.5086  0.6290
17792THY    HP735267   8.682   3.811   5.888  0.2623 -0.0052  0.2561
17792THY    CA335268   8.922   3.829   5.683 -0.8585  0.5310 -0.1008
17792THY    HA335269   8.839   3.874   5.630 -1.4120  1.0103 -0.5525
17792THY    CA435270   9.053   3.893   5.682 -0.0864 -0.2049  0.1402
17792THY    HA435271   9.080   3.976   5.617 -0.2987 -0.5730 -0.0728
17792THY    CA535272   9.151   3.839   5.764  0.4348  0.7647 -0.3331
17792THY    CM135273   9.287   3.912   5.766  0.7653 -0.8127  0.1748
17792THY    HM135274   9.338   3.895   5.862 -0.6756 -0.3466 -1.8144
17792THY    HM235275   9.267   4.019   5.753  0.9934 -0.0364  0.3191
17792THY    HM335276   9.353   3.892   5.681  1.4173 -0.2400 -0.1477
17792THY    CA635277   9.131   3.717   5.832  0.5214  0.5656 -0.3062
17792THY    HA635278   9.204   3.685   5.906 -1.1882  1.2479 -2.9775
17793THY      O35279   4.051   4.504   3.750  0.2488  0.0034 -0.0341
17793THY     HO35280   4.097   4.589   3.745  0.5433  3.8132  0.2002
17793THY    CA135281   4.019   4.456   3.622 -1.0078  0.6246 -0.1792
17793THY    CA235282   3.939   4.347   3.596 -0.0415 -0.2297 -0.1201
17793THY    CP135283   3.892   4.251   3.702 -0.2768  0.2527 -0.2165
17793THY    HP135284   3.916   4.287   3.803 -0.4884 -0.4327  2.0022
17793THY    CP235285   3.946   4.103   3.675 -0.1514 -0.0845 -0.7635
17793THY    HP235286   3.871   4.057   3.610 -0.5178 -2.0258  2.2743
17793THY    HP335287   3.963   4.044   3.766 -1.1795 -1.5309 -3.4202
17793THY    HP435288   4.038   4.104   3.615  0.6031  1.0236  0.5584
17793THY    CP335289   3.741   4.253   3.710 -0.0054 -0.7120  0.1257
17793THY    HP535290   3.708   4.357   3.714 -0.0674 -0.1383  0.0897
17793THY    HP635291   3.699   4.194   3.792  1.7044 -0.1532 -0.3588
17793THY    HP735292   3.689   4.210   3.624  0.3591 -0.6137 -0.5154
17793THY    CA335293   3.911   4.317   3.464 -0.5476  0.6656  0.0169
17793THY    HA335294   3.865   4.223   3.437  1.2990  0.6074 -0.9050
17793THY    CA435295   3.973   4.389   3.358 -0.0719 -0.3842  0.7869
17793THY    HA435296   3.965   4.353   3.256 -1.2149  0.1845 -0.6718
17793THY    CA535297   4.043   4.508   3.385  0.0291  0.3207  0.2502
17793THY    CM135298   4.095   4.596   3.277  0.2689 -0.5845  0.5818
17793THY    HM135299   4.014   4.604   3.203  1.0362 -1.4319  0.7150
17793THY    HM235300   4.186   4.551   3.236  0.0158  0.6937 -1.1769
17793THY    HM335301   4.105   4.699   3.313  0.7862  1.8460 -0.2584
17793THY    CA635302   4.067   4.535   3.518 -0.3089  0.1862 -0.3042
17793THY    HA635303   4.130   4.622   3.537  0.2498  0.5739 -0.7809
17794THY      O35304   3.921   7.356   6.381 -0.0153  0.0345  0.0409
17794THY     HO35305   3.958   7.434   6.337 -0.1304 -0.9022 -0.4245
17794THY    CA135306   3.806   7.313   6.324  0.7384  0.0161 -0.6634
17794THY    CA235307   3.730   7.206   6.386 -0.3592  0.1694 -1.0254
17794THY    CP135308   3.785   7.136   6.510 -0.6330  0.2653  0.9273
17794THY    HP135309   3.821   7.214   6.579  1.2597  0.1796  0.1765
17794THY    CP235310   3.893   7.035   6.467  0.2244  0.0346  0.0051
17794THY    HP235311   3.976   7.087   6.417 -0.3757 -0.2204  0.7427
17794THY    HP335312   3.851   6.969   6.391 -2.0041 -0.4266  1.8270
17794THY    HP435313   3.926   6.962   6.542 -0.3427  0.8102  0.5233
17794THY    CP335314   3.678   7.055   6.577 -0.0533 -0.4395  0.0826
17794THY    HP535315   3.604   7.125   6.616  0.9378 -1.2795  1.6556
17794THY    HP635316   3.719   7.000   6.663 -0.5928 -0.9000 -1.0803
17794THY    HP735317   3.622   6.982   6.516 -1.2136  0.5725  0.0985
17794THY    CA335318   3.599   7.196   6.332 -0.0257  0.5400 -0.2825
17794THY    HA335319   3.530   7.124   6.375 -2.0928  0.8464  1.7540
17794THY    CA435320   3.554   7.285   6.228 -0.0096 -0.9604  0.0984
17794THY    HA435321   3.449   7.277   6.202 -0.8321  2.0581 -0.1946
17794THY    CA535322   3.645   7.369   6.161 -0.1918 -0.3263 -0.2219
17794THY    CM135323   3.612   7.450   6.037  0.4651 -0.1686  0.4718
17794THY    HM135324   3.626   7.557   6.056 -1.3100  0.0092  0.6963
17794THY    HM235325   3.513   7.421   6.001  0.9221 -1.9160  0.9344
17794THY    HM335326   3.683   7.424   5.957  1.2325  0.4429  0.6578
17794THY    CA635327   3.772   7.376   6.211  0.4222  0.3308 -0.3054
17794THY    HA635328   3.835   7.444   6.155 -0.9922 -2.7453 -1.3051
17795THY      O35329   1.809   7.908   4.897  0.1425 -0.7730 -0.1603
17795THY     HO35330   1.770   7.978   4.841 -0.8096 -0.3387 -0.3255
17795THY    CA135331   1.870   7.985   4.999  0.5895 -0.3360 -0.1142
17795THY    CA235332   1.975   7.925   5.080 -0.4365 -0.4092  0.3219
17795THY    CP135333   1.999   7.775   5.091 -0.3524 -0.4192  0.8201
17795THY    HP135334   1.938   7.723   5.016 -0.7877  0.9908 -0.8059
17795THY    CP235335   1.942   7.726   5.224  0.7493 -0.3568  0.7577
17795THY    HP235336   1.992   7.751   5.318 -3.0573  2.9720 -2.6556
17795THY    HP335337   1.931   7.618   5.210 -1.9054  0.7416  0.8178
17795THY    HP435338   1.836   7.753   5.218  0.0067 -1.3426 -2.0235
17795THY    CP335339   2.143   7.731   5.081  0.5017  0.1017  0.3819
17795THY    HP535340   2.143   7.623   5.102  3.0053 -0.1925  0.2626
17795THY    HP635341   2.204   7.784   5.156 -0.8428  0.5533  1.3273
17795THY    HP735342   2.186   7.740   4.981  1.8857  0.6582  0.2279
17795THY    CA335343   2.051   8.015   5.160  0.1558  0.1913 -0.2913
17795THY    HA335344   2.124   7.979   5.232  0.6082  0.4740  1.0972
17795THY    CA435345   2.024   8.152   5.144  0.5888 -0.3070  0.5595
17795THY    HA435346   2.084   8.221   5.202  0.5698 -0.8544  1.0393
17795THY    CA535347   1.925   8.204   5.057 -0.2291 -0.9564 -0.2943
17795THY    CM135348   1.919   8.351   5.042 -0.0365 -0.3133 -0.8045
17795THY    HM135349   1.856   8.401   5.116 -0.0176 -0.2118 -0.9290
17795THY    HM235350   1.870   8.382   4.949  2.3773 -1.3618  0.1170
17795THY    HM335351   2.012   8.408   5.053 -0.8991 -0.9920  0.7944
17795THY    CA635352   1.834   8.123   4.990  0.6341  0.1981 -0.2293
17795THY    HA635353   1.762   8.167   4.921  0.1312  0.8347 -0.0289
17796THY      O35354   7.951   6.036   7.488  0.7512  0.5006 -0.7225
17796THY     HO35355   8.007   6.096   7.539 -3.5394  0.6754  3.8472
17796THY    CA135356   7.829   6.033   7.555 -0.3555 -0.1600 -0.0899
17796THY    CA235357   7.714   5.972   7.505 -0.4088 -0.1393  0.2043
17796THY    CP135358   7.721   5.900   7.376 -0.4404 -0.0616  0.0738
17796THY    HP135359   7.824   5.868   7.360  0.0835  1.6548  0.7754
17796THY    CP235360   7.693   5.992   7.257  0.3395 -0.0842  0.5435
17796THY    HP235361   7.584   5.996   7.242  0.4231 -0.6096  0.8566
17796THY    HP335362   7.744   5.944   7.172  1.0311  0.4203  0.3675
17796THY    HP435363   7.739   6.091   7.255  0.8238 -0.9944  0.3157
17796THY    CP335364   7.631   5.777   7.359 -0.2785  0.3699 -0.3471
17796THY    HP535365   7.645   5.731   7.261 -0.4972  0.2237 -0.1006
17796THY    HP635366   7.527   5.809   7.371 -0.0188  1.7671  0.0540
17796THY    HP735367   7.651   5.703   7.438  1.2895  1.4740  1.1807
17796THY    CA335368   7.603   5.970   7.583  0.3527 -0.3993  0.0147
17796THY    HA335369   7.509   5.923   7.556  0.1752 -0.3125  0.3126
17796THY    CA435370   7.604   6.036   7.710  0.3970 -1.0930 -0.7864
17796THY    HA435371   7.514   6.043   7.769  0.8255 -0.6429  3.0821
17796THY    CA535372   7.716   6.096   7.756  0.1257 -0.5599 -0.8191
17796THY    CM135373   7.716   6.167   7.886  0.0415 -0.2118 -0.5420
17796THY    HM135374   7.619   6.175   7.936  0.5240  0.7238 -0.3863
17796THY    HM235375   7.753   6.270   7.887 -0.3241 -0.3988 -0.4102
17796THY    HM335376   7.781   6.114   7.957 -0.0340  1.4796  1.4816
17796THY    CA635377   7.829   6.094   7.675 -0.5280 -0.7914  0.0472
17796THY    HA635378   7.915   6.152   7.708  0.7752 -0.5381 -1.9284
17797THY      O35379   7.368   3.859   4.486 -0.6824 -0.4378 -0.6437
17797THY     HO35380   7.396   3.800   4.414  1.5717  0.7215 -1.0812
17797THY    CA135381   7.457   3.840   4.592  0.4612  0.1295 -0.6159
17797THY    CA235382   7.425   3.877   4.727 -0.4878  0.1545  0.2804
17797THY    CP135383   7.298   3.958   4.759  0.1969 -0.6013 -0.6495
17797THY    HP135384   7.246   3.976   4.665 -2.0688  0.0252 -3.2153
17797THY    CP235385   7.328   4.097   4.825  0.4791  0.1683 -1.0415
17797THY    HP235386   7.420   4.135   4.780 -0.2648  0.7318  1.6262
17797THY    HP335387   7.331   4.105   4.934 -2.9297  0.4150 -1.4398
17797THY    HP435388   7.254   4.170   4.790 -0.6817  0.5951 -1.9876
17797THY    CP335389   7.205   3.885   4.849 -0.0274 -0.1477 -0.2895
17797THY    HP535390   7.249   3.851   4.943 -1.1410  0.3775 -0.3176
17797THY    HP635391   7.166   3.791   4.806 -0.8971  0.6344 -0.2965
17797THY    HP735392   7.128   3.956   4.879  0.9989  1.3693  0.2088
17797THY    CA335393   7.529   3.848   4.822 -0.2523 -0.3404 -0.4735
17797THY    HA335394   7.522   3.883   4.924  1.4072 -0.6634  0.9657
17797THY    CA435395   7.643   3.775   4.783 -0.4601 -0.4628 -0.0649
17797THY    HA435396   7.723   3.757   4.854  2.0858 -3.4564 -1.8659
17797THY    CA535397   7.660   3.736   4.654 -0.1996  0.0506 -0.0245
17797THY    CM135398   7.778   3.659   4.604 -0.1476 -0.7273 -0.6013
17797THY    HM135399   7.755   3.552   4.600  0.4272 -1.3255 -0.7083
17797THY    HM235400   7.855   3.659   4.682 -1.6979  0.8803  0.4753
17797THY    HM335401   7.813   3.695   4.507 -1.1290 -0.9435 -0.1751
17797THY    CA635402   7.571   3.776   4.551 -0.2182 -1.2145 -0.3038
17797THY    HA635403   7.590   3.756   4.446 -2.0504 -1.3750 -1.5031
17798THY      O35404   8.541   2.060   4.582  0.0345 -0.1357  0.6683
17798THY     HO35405   8.625   2.107   4.567  0.3244  1.1414  0.5895
17798THY    CA135406   8.445   2.155   4.588  0.1472  0.4020  0.3684
17798THY    CA235407   8.324   2.128   4.653 -0.1308 -0.2714 -0.5717
17798THY    CP135408   8.316   1.998   4.737  0.1803  0.6369 -0.2084
17798THY    HP135409   8.410   1.943   4.723  1.2954  1.1065  1.4992
17798THY    CP235410   8.210   1.903   4.681  0.7663  0.1374  0.4881
17798THY    HP235411   8.119   1.959   4.658  1.1311 -2.0468  0.2869
17798THY    HP335412   8.188   1.816   4.743  1.1930 -0.5481 -0.1179
17798THY    HP435413   8.246   1.857   4.588 -0.7219 -0.5580  0.6802
17798THY    CP335414   8.293   2.033   4.890 -0.2247 -0.8990  0.2812
17798THY    HP535415   8.263   1.943   4.944 -0.4817 -1.2332  0.1651
17798THY    HP635416   8.209   2.099   4.915  0.5844  1.4018  0.5403
17798THY    HP735417   8.388   2.071   4.930 -1.0789  0.4373  1.1301
17798THY    CA335418   8.220   2.230   4.653  0.4610 -0.4180 -0.6680
17798THY    HA335419   8.124   2.214   4.701 -0.5061 -1.4359  1.5989
17798THY    CA435420   8.241   2.341   4.573  0.6684  0.2213 -0.3022
17798THY    HA435421   8.162   2.415   4.565  0.8722  2.4431  0.2415
17798THY    CA535422   8.361   2.369   4.507 -0.6502  0.1283 -0.6184
17798THY    CM135423   8.384   2.502   4.432  0.4135 -0.0146  0.8449
17798THY    HM135424   8.491   2.526   4.421  1.1246  2.1701 -0.9494
17798THY    HM235425   8.341   2.588   4.485 -0.9327  2.1495 -1.0375
17798THY    HM335426   8.335   2.492   4.334  2.2881 -0.8060 -1.5511
17798THY    CA635427   8.461   2.274   4.514  0.2192 -0.2883 -0.0426
17798THY    HA635428   8.550   2.288   4.453  1.5250  1.4224 -0.4990
17799THY      O35429   4.204   3.583   3.451 -0.1983 -0.9608 -0.4869
17799THY     HO35430   4.231   3.677   3.445 -0.1096 -1.5252 -0.5422
17799THY    CA135431   4.250   3.529   3.338  0.1828 -0.1641 -0.2755
17799THY    CA235432   4.237   3.388   3.312  0.9322  0.7673 -0.1607
17799THY    CP135433   4.161   3.300   3.413  0.3914  0.2320 -0.0133
17799THY    HP135434   4.080   3.365   3.449 -0.5635 -1.3406 -0.2851
17799THY    CP235435   4.260   3.256   3.522 -0.0496 -0.6044  0.5113
17799THY    HP235436   4.323   3.341   3.550  0.1633  0.2661  0.0792
17799THY    HP335437   4.335   3.185   3.486  0.5368  0.6221  0.4822
17799THY    HP435438   4.207   3.233   3.615 -1.3956 -1.2047  1.1299
17799THY    CP335439   4.097   3.174   3.348  0.0826  0.1265 -0.8385
17799THY    HP535440   4.039   3.201   3.259 -2.2017  1.6092 -0.6873
17799THY    HP635441   4.022   3.128   3.412 -0.4774 -0.4686 -0.7746
17799THY    HP735442   4.173   3.099   3.321  0.3003 -0.3206 -0.4664
17799THY    CA335443   4.276   3.339   3.182 -0.2070 -0.0654  0.2198
17799THY    HA335444   4.276   3.231   3.172  1.2321 -2.0087  0.3594
17799THY    CA435445   4.332   3.431   3.092 -0.2874 -0.3217 -0.0567
17799THY    HA435446   4.365   3.398   2.994 -0.3277 -0.6751  0.9147
17799THY    CA535447   4.343   3.566   3.119  0.4222  0.2146 -0.8932
17799THY    CM135448   4.411   3.658   3.024  0.0527 -0.3974 -0.1328
17799THY    HM135449   4.405   3.761   3.060 -4.1864  1.2800 -0.7552
17799THY    HM235450   4.367   3.663   2.924 -0.3374 -0.3024 -1.3380
17799THY    HM335451   4.516   3.629   3.015  0.3467 -0.5323  0.9400
17799THY    CA635452   4.306   3.616   3.247 -0.7989 -0.3698 -0.5432
17799THY    HA635453   4.323   3.721   3.266 -2.0097 -1.2676 -0.1621
17800THY      O35454   8.270   6.583   7.503 -0.1495 -0.2371 -0.4806
17800THY     HO35455   8.305   6.570   7.413  3.6929  0.7047  1.6867
17800THY    CA135456   8.383   6.553   7.575  0.0227  0.4821 -0.3991
17800THY    CA235457   8.406   6.598   7.707  0.0544 -0.0107  0.1816
17800THY    CP135458   8.294   6.687   7.770 -0.8849  0.3249  0.2182
17800THY    HP135459   8.195   6.646   7.749  0.3065  2.2127 -4.2858
17800THY    CP235460   8.299   6.826   7.706  0.5820 -0.7061  0.4199
17800THY    HP235461   8.226   6.891   7.755  0.6484 -0.5976  0.4133
17800THY    HP335462   8.271   6.823   7.600 -2.5996 -0.0404  2.1763
17800THY    HP435463   8.403   6.861   7.702  1.3390 -1.7278 -1.7822
17800THY    CP335464   8.307   6.704   7.916 -0.2848 -0.1260 -0.2270
17800THY    HP535465   8.219   6.739   7.971  0.0224  0.6173 -0.5944
17800THY    HP635466   8.391   6.771   7.936 -0.1747 -0.5959 -0.2212
17800THY    HP735467   8.322   6.604   7.960  0.5248 -0.0572 -0.0770
17800THY    CA335468   8.530   6.584   7.771 -0.8594 -0.2307 -0.3427
17800THY    HA335469   8.556   6.619   7.870  1.3170 -0.7346 -0.3615
17800THY    CA435470   8.635   6.529   7.699 -0.8526 -0.6980 -0.2291
17800THY    HA435471   8.730   6.510   7.747 -0.9828 -0.1967  0.3697
17800THY    CA535472   8.615   6.471   7.571  0.8471  0.0738 -0.6378
17800THY    CM135473   8.728   6.417   7.483 -0.5694  0.0260  0.3123
17800THY    HM135474   8.687   6.357   7.401  1.9396  0.7900 -2.6973
17800THY    HM235475   8.780   6.346   7.548 -1.3143 -0.8613 -1.0896
17800THY    HM335476   8.798   6.490   7.441 -1.3464 -1.1489  0.4268
17800THY    CA635477   8.486   6.486   7.509  0.1445 -0.0198 -0.2688
17800THY    HA635478   8.476   6.459   7.405 -2.3382  0.3462 -1.0121
17801THY      O35479   5.944   3.093   8.116  0.0991 -0.0271  0.7674
17801THY     HO35480   5.910   3.010   8.153  0.8400 -0.0246  0.4529
17801THY    CA135481   5.993   3.052   7.999  0.3977 -0.0422 -0.2442
17801THY    CA235482   6.024   3.150   7.896  0.1136 -0.5437  0.6652
17801THY    CP135483   5.994   3.299   7.925  0.0124 -0.2816 -0.0341
17801THY    HP135484   5.907   3.320   7.988  0.3008  0.2216 -0.3325
17801THY    CP235485   5.976   3.388   7.814  0.1270  0.9257  0.4884
17801THY    HP235486   6.063   3.384   7.749  0.1902  1.0681 -0.5158
17801THY    HP335487   5.968   3.494   7.844 -0.7639  0.6185  0.5203
17801THY    HP435488   5.892   3.355   7.752  1.1622 -0.4450  0.3708
17801THY    CP335489   6.105   3.364   8.012 -0.3447  0.2205  1.0126
17801THY    HP535490   6.203   3.366   7.963 -0.7748 -0.7494 -0.0080
17801THY    HP635491   6.117   3.304   8.103 -1.3757 -1.0853 -1.3579
17801THY    HP735492   6.087   3.470   8.032 -0.8958  1.6224  0.6799
17801THY    CA335493   6.094   3.098   7.786 -0.3904 -0.0549 -0.4452
17801THY    HA335494   6.136   3.154   7.703  2.2346  1.8110  0.5673
17801THY    CA435495   6.095   2.960   7.759 -0.6838 -0.2494 -0.0374
17801THY    HA435496   6.127   2.921   7.663  1.1923  0.2852  0.0835
17801THY    CA535497   6.059   2.869   7.858  1.4509  0.3118  0.2464
17801THY    CM135498   6.058   2.723   7.828 -0.1873 -0.4689  0.0186
17801THY    HM135499   6.145   2.686   7.772  1.0923  2.0546 -1.0141
17801THY    HM235500   5.968   2.700   7.769 -0.2055 -0.9456  1.2206
17801THY    HM335501   6.055   2.659   7.916  0.8484 -1.0189 -0.8042
17801THY    CA635502   6.017   2.918   7.979  0.7829  0.3342  0.3030
17801THY    HA635503   5.997   2.845   8.057  1.1208  0.8041  0.7050
17802THY      O35504   7.299   1.498   2.366 -0.3851 -0.3414 -0.0314
17802THY     HO35505   7.239   1.445   2.421  1.2194 -0.0926 -1.7325
17802THY    CA135506   7.389   1.550   2.447  1.0458  0.0190 -0.0254
17802THY    CA235507   7.475   1.654   2.401  0.4168  0.1774  0.1573
17802THY    CP135508   7.454   1.717   2.264  0.8203 -0.4435 -0.6302
17802THY    HP135509   7.381   1.667   2.199  0.3617 -0.4385  0.0237
17802THY    CP235510   7.582   1.702   2.191 -0.2091  0.4996  0.1646
17802THY    HP235511   7.637   1.607   2.197  2.5811 -2.1407  1.4759
17802THY    HP335512   7.664   1.773   2.208 -0.7925  0.2389  0.9153
17802THY    HP435513   7.587   1.717   2.083  0.8298  0.4907 -0.1740
17802THY    CP335514   7.417   1.868   2.271 -0.2377 -0.3006  0.0102
17802THY    HP535515   7.418   1.904   2.167 -0.0879 -1.7833 -3.8264
17802THY    HP635516   7.485   1.937   2.323 -1.8989 -0.3113  1.7320
17802THY    HP735517   7.318   1.878   2.317 -0.4010 -0.2237 -1.6159
17802THY    CA335518   7.558   1.712   2.498 -0.2455  0.1908  0.2334
17802THY    HA335519   7.612   1.801   2.466  0.6918 -1.1019 -0.7704
17802THY    CA435520   7.561   1.653   2.624  0.1452 -0.1840 -0.7833
17802THY    HA435521   7.631   1.701   2.691 -0.2125  0.5460 -1.2616
17802THY    CA535522   7.487   1.538   2.662  0.4097 -0.2839 -0.4035
17802THY    CM135523   7.494   1.490   2.803 -0.5822  0.1853  0.3937
17802THY    HM135524   7.523   1.385   2.806 -0.9453  0.3134  0.2943
17802THY    HM235525   7.401   1.508   2.859 -0.0912  0.7296  1.3582
17802THY    HM335526   7.562   1.542   2.872 -0.3124 -0.6732  1.2218
17802THY    CA635527   7.388   1.497   2.573  0.0210 -0.9873  0.6584
17802THY    HA635528   7.317   1.423   2.609 -0.4417 -0.1188  1.4944
17803THY      O35529   9.147   5.660   7.694 -0.0355  0.0863 -0.0908
17803THY     HO35530   9.097   5.661   7.778 -0.6811 -0.2740 -0.7556
17803THY    CA135531   9.059   5.675   7.587  0.1073  0.2280  0.4853
17803THY    CA235532   9.094   5.681   7.453 -0.8765 -0.2034  0.2349
17803THY    CP135533   9.240   5.688   7.411 -0.1864  0.4322  0.2280
17803THY    HP135534   9.308   5.659   7.493  0.6040 -0.3200 -0.1015
17803THY    CP235535   9.280   5.836   7.409  0.1588  0.2573 -0.8680
17803THY    HP235536   9.389   5.847   7.402  0.1224  1.1674  0.3096
17803THY    HP335537   9.249   5.887   7.501  0.1461  0.0047 -0.4131
17803THY    HP435538   9.239   5.892   7.323  1.0156  0.2402 -0.2373
17803THY    CP335539   9.285   5.625   7.277 -0.4247 -0.1974 -0.3958
17803THY    HP535540   9.276   5.515   7.275 -0.7498  0.3856 -0.3861
17803THY    HP635541   9.385   5.659   7.247 -0.3381  1.3314  0.7982
17803THY    HP735542   9.219   5.652   7.194  0.6430 -0.7263  0.6599
17803THY    CA335543   8.992   5.690   7.358  0.2212  0.7310  0.3984
17803THY    HA335544   9.021   5.701   7.254 -3.5147 -0.4240  0.5244
17803THY    CA435545   8.864   5.703   7.396 -0.4870  0.8184 -0.4616
17803THY    HA435546   8.792   5.723   7.317 -1.7306  2.1299  0.4163
17803THY    CA535547   8.821   5.689   7.530  0.2477  0.2063 -0.1527
17803THY    CM135548   8.674   5.688   7.553  0.2957  0.0528 -0.4323
17803THY    HM135549   8.644   5.601   7.613 -1.9423  1.1164  0.9850
17803THY    HM235550   8.620   5.694   7.458 -0.5534  0.3139 -2.8955
17803THY    HM335551   8.647   5.772   7.618 -0.4925  0.0734 -0.6874
17803THY    CA635552   8.921   5.678   7.623  0.2982 -0.0223  0.3136
17803THY    HA635553   8.892   5.663   7.726  1.5858  0.2065 -0.7911
17804THY      O35554   9.208   6.606   6.047  0.3219  0.4990  0.4437
17804THY     HO35555   9.304   6.606   6.031  0.6043  1.9786 -1.5677
17804THY    CA135556   9.180   6.740   6.052  0.2043  0.1254  0.3049
17804THY    CA235557   9.043   6.779   6.047 -0.9708 -0.3037  0.6921
17804THY    CP135558   8.926   6.674   6.062 -0.2523  0.4789 -0.4947
17804THY    HP135559   8.957   6.581   6.112 -3.7818  1.3412 -1.3335
17804THY    CP235560   8.851   6.647   5.928  0.6358 -0.3026  0.2888
17804THY    HP235561   8.757   6.590   5.932  0.8003 -0.9981 -0.0319
17804THY    HP335562   8.917   6.605   5.851 -0.0226 -0.3705 -0.6422
17804THY    HP435563   8.817   6.746   5.896 -1.1676  1.2632  0.2428
17804THY    CP335564   8.821   6.723   6.155  1.0628 -0.2274  0.2047
17804THY    HP535565   8.765   6.803   6.104  2.3557 -0.7950  0.7694
17804THY    HP635566   8.859   6.760   6.250 -1.4700  0.4966  1.1515
17804THY    HP735567   8.757   6.636   6.174  1.4360 -1.2361 -0.3129
17804THY    CA335568   9.010   6.907   6.036 -0.7007  0.8792 -0.1943
17804THY    HA335569   8.909   6.948   6.031 -0.8692  0.0753 -0.6871
17804THY    CA435570   9.115   6.996   6.049 -0.5340  0.1004 -0.2381
17804THY    HA435571   9.091   7.101   6.033  1.2498  1.8872  0.5023
17804THY    CA535572   9.251   6.966   6.053 -0.0840  0.1491  0.0817
17804THY    CM135573   9.354   7.074   6.047  0.8085 -0.3530 -0.0444
17804THY    HM135574   9.335   7.150   6.124 -1.4711  0.3626 -1.2193
17804THY    HM235575   9.373   7.100   5.943  1.1219 -0.4471 -0.6365
17804THY    HM335576   9.455   7.035   6.063  0.5940 -0.8198 -0.8075
17804THY    CA635577   9.283   6.832   6.065  0.5697  0.0222 -0.1003
17804THY    HA635578   9.388   6.808   6.078  1.1181 -1.1592  1.4388
17805THY      O35579   1.226   3.272   1.818  0.1512 -0.1050 -0.6066
17805THY     HO35580   1.210   3.176   1.817 -1.7197  0.4431 -0.3237
17805THY    CA135581   1.323   3.304   1.902 -0.3798 -0.3682 -0.3696
17805THY    CA235582   1.352   3.440   1.926  0.4609 -0.3052  0.4560
17805THY    CP135583   1.263   3.542   1.855 -0.0121 -0.3339 -0.3022
17805THY    HP135584   1.180   3.488   1.809  0.9525 -2.4935 -0.0414
17805THY    CP235585   1.334   3.629   1.744 -0.9932  0.0068  0.6959
17805THY    HP235586   1.381   3.561   1.672  0.2316  2.1593 -0.8754
17805THY    HP335587   1.399   3.708   1.784 -0.7773  0.8037  0.1282
17805THY    HP435588   1.256   3.685   1.691 -1.0451  0.7071  1.3032
17805THY    CP335589   1.205   3.649   1.944 -0.7622  0.1822  0.2437
17805THY    HP535590   1.296   3.693   1.987  0.0092  0.7985 -1.8427
17805THY    HP635591   1.147   3.596   2.020 -2.8210 -0.6313  1.2003
17805THY    HP735592   1.155   3.723   1.880  0.5454  0.1797  1.1668
17805THY    CA335593   1.470   3.472   1.996  0.0577 -0.3753 -0.7222
17805THY    HA335594   1.499   3.577   1.999 -0.3952 -2.6582 -0.4823
17805THY    CA435595   1.535   3.371   2.066 -0.0016  0.3962  0.3917
17805THY    HA435596   1.609   3.404   2.139  0.6635 -0.4150  0.7190
17805THY    CA535597   1.498   3.237   2.053  0.5267 -0.5522  0.2889
17805THY    CM135598   1.557   3.128   2.141  0.8355  0.1132 -0.0443
17805THY    HM135599   1.493   3.046   2.175  2.2058 -2.1244 -2.1506
17805THY    HM235600   1.613   3.169   2.225  1.3948  1.0651 -2.5724
17805THY    HM335601   1.637   3.081   2.084 -0.2474 -0.7582 -0.8795
17805THY    CA635602   1.396   3.200   1.964 -0.6112  0.1155  0.5447
17805THY    HA635603   1.373   3.096   1.943  3.1578  0.3932 -0.4966
17806THY      O35604   5.134   3.999   4.273  0.3206 -0.2308 -0.3853
17806THY     HO35605   5.093   4.066   4.216  2.5209 -0.9191  0.4539
17806THY    CA135606   5.144   4.043   4.398  0.5361 -0.4055  0.3921
17806THY    CA235607   5.169   3.959   4.512  0.2358  0.7247  0.5322
17806THY    CP135608   5.173   3.805   4.499  0.3723 -0.1297 -0.2301
17806THY    HP135609   5.153   3.786   4.393 -1.6464  0.1714 -0.0315
17806THY    CP235610   5.068   3.733   4.571  0.2814 -0.2904  0.2241
17806THY    HP235611   4.971   3.760   4.528  0.3707 -1.1256 -0.7248
17806THY    HP335612   5.062   3.756   4.678  1.1717  0.1759 -1.4948
17806THY    HP435613   5.069   3.624   4.559 -0.8213  0.5632  0.0995
17806THY    CP335614   5.320   3.763   4.533  0.0653  0.3774  0.1948
17806THY    HP535615   5.337   3.771   4.641 -0.1975  0.5269 -1.0672
17806THY    HP635616   5.392   3.825   4.478  1.2783  1.0042 -0.6140
17806THY    HP735617   5.339   3.658   4.507  0.1051 -2.3530  0.7846
17806THY    CA335618   5.198   4.020   4.639  0.3785  1.2796 -0.0620
17806THY    HA335619   5.234   3.955   4.718 -2.8950  3.2277  0.2935
17806THY    CA435620   5.180   4.160   4.653  0.7754  0.0157  0.2689
17806THY    HA435621   5.196   4.198   4.754  1.1215  0.7215 -1.5979
17806THY    CA535622   5.152   4.235   4.540 -0.2120 -0.2452 -0.1213
17806THY    CM135623   5.131   4.381   4.566 -0.0482 -0.0034  0.5927
17806THY    HM135624   5.205   4.420   4.635  0.2815  1.0430 -1.7216
17806THY    HM235625   5.029   4.398   4.604 -0.5441 -0.4039 -1.2824
17806THY    HM335626   5.152   4.448   4.482  1.7772  0.2057  0.3134
17806THY    CA635627   5.133   4.182   4.412 -0.4150  0.2015  0.5419
17806THY    HA635628   5.104   4.246   4.330 -0.3095 -0.5207 -0.3067
17807THY      O35629   1.119   7.122   1.908  1.0091 -0.2402 -0.0048
17807THY     HO35630   1.119   7.172   1.825 -0.7922 -0.5316 -0.4122
17807THY    CA135631   1.158   7.006   1.862 -0.0459  0.1781  0.1811
17807THY    CA235632   1.211   6.912   1.954  0.8027  0.2760 -0.0903
17807THY    CP135633   1.181   6.925   2.107 -0.0690 -0.2633  0.3742
17807THY    HP135634   1.112   7.006   2.132 -0.1734  1.7574 -0.2818
17807THY    CP235635   1.305   6.927   2.190 -0.2031 -0.4104  0.4292
17807THY    HP235636   1.293   6.974   2.288  0.5167 -0.6774  1.2028
17807THY    HP335637   1.374   6.988   2.129  0.1990 -0.0068  0.3860
17807THY    HP435638   1.358   6.831   2.196  1.3964  2.4221  1.3663
17807THY    CP335639   1.108   6.799   2.147 -0.1839 -0.5773 -0.7008
17807THY    HP535640   1.178   6.723   2.183  2.0229  1.2599  1.9893
17807THY    HP635641   1.035   6.753   2.079  0.2094 -1.2433 -0.3563
17807THY    HP735642   1.061   6.827   2.242 -2.0228 -0.4626 -3.6460
17807THY    CA335643   1.248   6.786   1.898 -0.4351 -0.5569  0.2637
17807THY    HA335644   1.280   6.702   1.959 -1.5646  0.7270  0.7160
17807THY    CA435645   1.248   6.766   1.762 -0.3688  0.7174  0.2386
17807THY    HA435646   1.273   6.668   1.720 -2.3550 -0.9883  0.3664
17807THY    CA535647   1.208   6.869   1.674  0.9429 -1.4512  0.1426
17807THY    CM135648   1.191   6.844   1.524  0.6098  0.3643 -0.1921
17807THY    HM135649   1.270   6.899   1.471 -1.5188 -1.2849  1.4544
17807THY    HM235650   1.106   6.890   1.474 -0.4570  1.0765 -1.3246
17807THY    HM335651   1.200   6.738   1.498 -2.6007 -0.6024 -0.3342
17807THY    CA635652   1.149   6.981   1.723 -0.1886 -0.0017 -0.3299
17807THY    HA635653   1.101   7.049   1.653 -0.4405  2.6347  2.4091
17808THY      O35654   8.278   1.520   7.253 -0.1762  0.1785  0.3037
17808THY     HO35655   8.203   1.464   7.228  0.3269  2.0524 -1.3234
17808THY    CA135656   8.355   1.452   7.341 -0.0702  0.8362  0.0096
17808THY    CA235657   8.426   1.505   7.451  0.0907  0.1057  0.6991
17808THY    CP135658   8.425   1.660   7.467 -0.1933  0.7954 -0.1296
17808THY    HP135659   8.381   1.707   7.378  2.1960 -0.0191  0.6847
17808THY    CP235660   8.566   1.711   7.477 -0.3278 -0.5545  0.1461
17808THY    HP235661   8.623   1.680   7.389  2.1040  0.7915  0.5525
17808THY    HP335662   8.629   1.669   7.555  0.4706 -1.8013 -1.0582
17808THY    HP435663   8.561   1.820   7.481 -2.1004  0.7678  0.0595
17808THY    CP335664   8.356   1.697   7.596 -0.3992  0.0402 -0.8385
17808THY    HP535665   8.257   1.651   7.597  0.8062 -0.4775 -3.6165
17808THY    HP635666   8.343   1.805   7.613  2.6981  0.9172 -0.4929
17808THY    HP735667   8.408   1.652   7.682  1.4522 -0.3362  0.4402
17808THY    CA335668   8.500   1.421   7.535 -0.2204 -0.7210  0.7506
17808THY    HA335669   8.563   1.464   7.612  0.1585  0.2915 -1.4498
17808THY    CA435670   8.484   1.284   7.519  0.0874  0.9268  0.4020
17808THY    HA435671   8.543   1.216   7.581 -1.0490  0.3939 -1.1337
17808THY    CA535672   8.402   1.232   7.419 -0.4547  0.1520  0.1040
17808THY    CM135673   8.398   1.082   7.398  0.1835  0.2274 -0.2244
17808THY    HM135674   8.298   1.041   7.382 -0.8791  0.9723  1.9010
17808THY    HM235675   8.435   1.025   7.484 -0.6804 -0.6239 -2.1504
17808THY    HM335676   8.450   1.061   7.304  1.4969  0.8940 -0.0700
17808THY    CA635677   8.338   1.315   7.335  0.2990  0.3558  0.0683
17808THY    HA635678   8.272   1.281   7.255  0.7141  0.3588 -0.7937
17809THY      O35679   3.760   8.948   6.113  0.1274 -0.0010 -0.0451
17809THY     HO35680   3.756   8.969   6.018  0.1239 -0.0339 -0.1957
17809THY    CA135681   3.858   9.034   6.156  0.3528 -0.0365 -0.9436
17809THY    CA235682   3.871   9.066   6.285 -0.0421  0.5618  0.2250
17809THY    CP135683   3.778   9.012   6.388  1.2142  0.2792  0.7180
17809THY    HP135684   3.710   8.936   6.349  3.0779 -1.2346 -0.2401
17809THY    CP235685   3.699   9.125   6.463 -0.4219  0.6364  0.7503
17809THY    HP235686   3.621   9.087   6.530  0.2572  2.0073  1.6770
17809THY    HP335687   3.668   9.214   6.407  0.2334  1.6271  1.6315
17809THY    HP435688   3.768   9.168   6.537 -0.7268  2.0003 -0.9772
17809THY    CP335689   3.857   8.923   6.487  0.2336  0.0620 -0.0516
17809THY    HP535690   3.908   8.840   6.437  1.0192 -0.1224  0.5291
17809THY    HP635691   3.787   8.872   6.553  1.5256  1.0129 -0.6565
17809THY    HP735692   3.923   8.989   6.545 -2.1333  0.7440  1.8318
17809THY    CA335693   3.980   9.144   6.322 -0.2503 -0.3387 -0.5750
17809THY    HA335694   3.992   9.173   6.426  3.1070 -0.9823  0.8459
17809THY    CA435695   4.082   9.183   6.227 -0.3117 -0.3452  0.1606
17809THY    HA435696   4.166   9.247   6.254 -1.7317 -0.3373  2.1111
17809THY    CA535697   4.061   9.147   6.095 -0.4741  0.2681  0.2617
17809THY    CM135698   4.168   9.184   5.993 -0.0962 -0.9182 -0.4400
17809THY    HM135699   4.270   9.150   6.014 -0.2850 -2.5279 -2.1628
17809THY    HM235700   4.169   9.293   5.981 -1.7857 -1.0865 -0.4161
17809THY    HM335701   4.145   9.144   5.894 -1.2768 -0.3910 -1.1265
17809THY    CA635702   3.952   9.071   6.060 -0.0976  0.2673 -0.7848
17809THY    HA635703   3.947   9.044   5.955 -0.5320 -0.3026  1.3105
17810THY      O35704   6.996   5.263   2.356 -1.1134 -0.2832 -0.2905
17810THY     HO35705   7.005   5.229   2.266 -2.3001 -0.3698 -0.4095
17810THY    CA135706   7.051   5.391   2.368 -0.4581  0.6958 -0.5833
17810THY    CA235707   7.031   5.471   2.485  0.0210 -0.4968  0.2947
17810THY    CP135708   6.964   5.422   2.605 -0.1231 -0.9806  0.4867
17810THY    HP135709   6.977   5.313   2.608  2.7635  1.2735  0.7906
17810THY    CP235710   6.816   5.459   2.599  0.2473 -0.1820 -0.1151
17810THY    HP235711   6.812   5.569   2.599  1.5216 -2.0741 -0.0169
17810THY    HP335712   6.765   5.407   2.681  2.9206  3.1663  2.0874
17810THY    HP435713   6.779   5.428   2.501  0.0342 -0.0209 -0.3724
17810THY    CP335714   7.017   5.460   2.742 -0.3725  0.4882  0.5390
17810THY    HP535715   7.115   5.412   2.751 -1.1674  0.9446 -1.0827
17810THY    HP635716   6.947   5.432   2.822 -0.4523 -0.3834 -2.0419
17810THY    HP735717   7.033   5.568   2.755 -1.0777 -1.1205  0.8754
17810THY    CA335718   7.071   5.607   2.485  0.1907  0.7315  0.0496
17810THY    HA335719   7.050   5.665   2.575 -0.0914 -0.2101  1.4550
17810THY    CA435720   7.155   5.646   2.374  0.4917  0.3417 -0.4716
17810THY    HA435721   7.184   5.750   2.370 -2.3396  1.3580  0.4580
17810THY    CA535722   7.162   5.574   2.250  1.2910 -0.1812  0.0565
17810THY    CM135723   7.218   5.644   2.137  0.3375 -0.0481 -0.2361
17810THY    HM135724   7.312   5.693   2.164 -0.9918  1.2824  1.7329
17810THY    HM235725   7.144   5.724   2.122  0.8242  0.7151  0.3747
17810THY    HM335726   7.207   5.578   2.050 -1.0869  0.5979 -0.8862
17810THY    CA635727   7.107   5.443   2.249  0.1981 -0.1259 -0.0000
17810THY    HA635728   7.104   5.387   2.156 -1.7598 -1.4035  2.0609
17811THY      O35729   7.017   9.528   7.269  0.1984 -0.4564 -0.6363
17811THY     HO35730   7.064   9.547   7.186  0.7308  0.2477  1.3766
17811THY    CA135731   6.972   9.404   7.273 -0.0052  0.1820  0.5077
17811THY    CA235732   6.920   9.340   7.390 -0.0244 -0.5063  0.2886
17811THY    CP135733   6.915   9.407   7.529 -0.2944 -0.3979  0.1364
17811THY    HP135734   6.970   9.501   7.518 -1.6624 -1.0763  0.8942
17811THY    CP235735   6.989   9.322   7.632 -0.3421 -0.0561  0.1927
17811THY    HP235736   6.936   9.234   7.672 -0.1987  0.3894  0.3061
17811THY    HP335737   7.033   9.370   7.720  0.1237  0.7302 -1.6018
17811THY    HP435738   7.078   9.282   7.583 -0.4317  0.0578 -0.1555
17811THY    CP335739   6.768   9.446   7.579  0.0945  0.0912  0.8221
17811THY    HP535740   6.709   9.479   7.493 -0.1479 -0.1695 -0.2386
17811THY    HP635741   6.772   9.520   7.659  1.2521  1.1494 -0.3216
17811THY    HP735742   6.726   9.352   7.617 -0.3161 -0.1148  0.9194
17811THY    CA335743   6.868   9.212   7.375  0.3370 -0.6980  0.0238
17811THY    HA335744   6.828   9.160   7.461  0.3499  0.9552  2.5598
17811THY    CA435745   6.859   9.151   7.252 -0.1742 -0.2683  0.1560
17811THY    HA435746   6.805   9.058   7.257 -2.3921 -3.3905  1.0927
17811THY    CA535747   6.902   9.211   7.140  0.2641 -0.1674  0.6191
17811THY    CM135748   6.889   9.128   7.015 -0.5179 -0.0677  0.0600
17811THY    HM135749   6.962   9.178   6.950  1.0017  0.6598 -1.1215
17811THY    HM235750   6.790   9.123   6.968 -0.5595  0.1504 -1.7047
17811THY    HM335751   6.926   9.025   7.024 -0.5013 -0.4973  0.0250
17811THY    CA635752   6.957   9.338   7.145 -0.4187 -0.2480 -0.2279
17811THY    HA635753   6.994   9.391   7.058  1.4018  1.8293  2.1076
17812THY      O35754   1.924   2.055   4.183  0.0367 -0.6738  0.5112
17812THY     HO35755   1.836   2.096   4.175  0.7063 -2.0530  1.7490
17812THY    CA135756   1.932   1.976   4.295  0.3276 -0.7556 -0.6964
17812THY    CA235757   2.024   1.865   4.308  0.0602  0.3730  0.3578
17812THY    CP135758   2.123   1.831   4.198 -0.0938 -0.4189  0.7250
17812THY    HP135759   2.100   1.898   4.114 -1.6265  0.2033  1.0334
17812THY    CP235760   2.084   1.685   4.152 -0.3061 -0.1607 -0.1448
17812THY    HP235761   1.979   1.672   4.123 -0.1100 -0.3314 -1.4335
17812THY    HP335762   2.106   1.611   4.229 -2.2219 -0.7535 -1.4226
17812THY    HP435763   2.142   1.659   4.063  1.2030  0.4554  0.9931
17812THY    CP335764   2.273   1.842   4.241 -0.5774 -0.3735 -0.2533
17812THY    HP535765   2.304   1.946   4.254 -0.5386 -2.1498 -0.0133
17812THY    HP635766   2.336   1.807   4.159  1.0611  0.0778  1.4838
17812THY    HP735767   2.282   1.777   4.329  1.0064  1.7550  2.6300
17812THY    CA335768   2.018   1.794   4.431  0.0158 -0.1582  0.4886
17812THY    HA335769   2.081   1.707   4.444  1.3737  1.1315  1.6080
17812THY    CA435770   1.914   1.818   4.522 -0.5066  0.6745 -0.9546
17812THY    HA435771   1.906   1.757   4.611  0.3891  1.4420  0.0109
17812THY    CA535772   1.827   1.929   4.507 -0.3504  0.2221  0.0112
17812THY    CM135773   1.729   1.971   4.613 -0.5565 -0.0788  0.1999
17812THY    HM135774   1.626   1.962   4.575 -0.2255 -1.3056  1.2922
17812THY    HM235775   1.738   2.078   4.635 -3.1303  1.3972  0.2138
17812THY    HM335776   1.739   1.906   4.700  1.3666 -1.1154 -0.9828
17812THY    CA635777   1.840   2.008   4.393 -0.2197 -0.3114 -0.2388
17812THY    HA635778   1.776   2.096   4.386 -0.4459  0.7007 -0.3176
17813THY      O35779   6.298   0.368   3.094 -0.4196 -0.0622  0.2085
17813THY     HO35780   6.207   0.379   3.060 -0.1125 -0.5213  1.4152
17813THY    CA135781   6.329   0.478   3.164  0.4413  0.8424 -0.0610
17813THY    CA235782   6.448   0.494   3.228 -0.6519 -0.5491  0.1967
17813THY    CP135783   6.541   0.376   3.250 -0.5860 -0.0791 -0.3587
17813THY    HP135784   6.501   0.292   3.192  0.3673  0.3847 -1.1508
17813THY    CP235785   6.549   0.335   3.396  0.6271  0.5546  0.4394
17813THY    HP235786   6.446   0.312   3.426  1.3398  1.8896 -1.2177
17813THY    HP335787   6.569   0.418   3.466 -0.2051  0.9881  0.2942
17813THY    HP435788   6.614   0.247   3.401  0.9663 -1.9135  0.4911
17813THY    CP335789   6.688   0.401   3.198  0.1889  0.4728  0.3306
17813THY    HP535790   6.688   0.384   3.090 -2.2186 -0.4906  4.7058
17813THY    HP635791   6.765   0.345   3.252 -0.3483  1.4570  0.5056
17813THY    HP735792   6.727   0.503   3.213 -0.2331 -0.4672  0.6443
17813THY    CA335793   6.480   0.627   3.278 -0.0872  0.3495 -0.8573
17813THY    HA335794   6.576   0.653   3.323 -0.6638  0.7346  0.7344
17813THY    CA435795   6.379   0.732   3.270  0.2276  0.4996 -0.2236
17813THY    HA435796   6.399   0.832   3.307  0.8232  1.1863 -0.5862
17813THY    CA535797   6.255   0.711   3.209 -0.6279  0.0561  0.3260
17813THY    CM135798   6.159   0.816   3.200  0.4136  0.2888  0.8831
17813THY    HM135799   6.121   0.838   3.300 -3.7249 -0.8152 -0.1565
17813THY    HM235800   6.073   0.783   3.140  0.5991  0.2130  0.5315
17813THY    HM335801   6.197   0.912   3.163 -1.1856 -1.1146  1.0341
17813THY    CA635802   6.233   0.582   3.159  0.1250  0.2747 -0.2168
17813THY    HA635803   6.140   0.557   3.107  1.1159 -1.4959 -0.4014
17814THY      O35804   0.993   6.966   6.734 -0.1724  0.2376 -0.3137
17814THY     HO35805   0.976   6.973   6.829  0.1538  0.2577  0.3067
17814THY    CA135806   0.923   7.063   6.679 -0.0914 -0.2032 -0.6058
17814THY    CA235807   0.918   7.087   6.541  0.5735 -0.4619 -0.5213
17814THY    CP135808   1.005   6.998   6.448  0.6289  0.3299  0.0754
17814THY    HP135809   1.069   6.934   6.510  2.0842 -2.0606 -0.8947
17814THY    CP235810   1.102   7.079   6.362  0.8929  0.0367  0.0544
17814THY    HP235811   1.172   7.007   6.318 -1.4285 -1.0272 -1.6973
17814THY    HP335812   1.164   7.140   6.428  0.8813 -1.3319  1.6418
17814THY    HP435813   1.057   7.135   6.279  1.4498  0.8364  1.7308
17814THY    CP335814   0.922   6.906   6.362  0.2342  0.0049  0.0097
17814THY    HP535815   0.847   6.856   6.425  1.4002  0.7529 -0.8333
17814THY    HP635816   0.981   6.820   6.329  1.1784  0.9407  0.2765
17814THY    HP735817   0.864   6.953   6.282 -1.4747  0.8707 -0.5253
17814THY    CA335818   0.821   7.174   6.493  0.3822 -0.7002  0.0088
17814THY    HA335819   0.813   7.188   6.385 -0.6393 -0.7160 -0.5642
17814THY    CA435820   0.752   7.262   6.577  0.0657 -0.0859  0.8066
17814THY    HA435821   0.694   7.342   6.532  3.0267 -2.6875  1.7018
17814THY    CA535822   0.777   7.252   6.710 -0.1117  0.0705 -0.4825
17814THY    CM135823   0.716   7.345   6.810  0.1366  0.9851 -0.5616
17814THY    HM135824   0.722   7.447   6.770  1.7529  0.6028 -0.7656
17814THY    HM235825   0.760   7.341   6.910  3.4567 -0.3169 -0.4290
17814THY    HM335826   0.609   7.322   6.814 -0.1151 -0.2184  0.3440
17814THY    CA635827   0.868   7.154   6.766  0.9720 -0.4277  0.1971
17814THY    HA635828   0.873   7.148   6.875  0.6266 -0.2519  2.3679
17815THY      O35829   4.616   0.419   4.492 -0.8160 -0.3415  0.0230
17815THY     HO35830   4.568   0.504   4.492 -0.9483 -0.4424 -0.0496
17815THY    CA135831   4.597   0.347   4.605 -0.2033  0.2395  0.1953
17815THY    CA235832   4.671   0.234   4.640 -0.5642  0.3813  0.3296
17815THY    CP135833   4.779   0.181   4.544 -0.1900 -0.2001  0.1110
17815THY    HP135834   4.826   0.268   4.498 -1.7346 -1.9041  0.1053
17815THY    CP235835   4.721   0.086   4.441  0.1335 -0.2283  0.2332
17815THY    HP235836   4.793   0.024   4.387  1.5376  1.1698  0.5930
17815THY    HP335837   4.667   0.152   4.372  0.7118 -0.9308 -0.0025
17815THY    HP435838   4.649   0.018   4.488  0.7420  0.0146 -0.2555
17815THY    CP335839   4.892   0.108   4.611  0.1710 -0.5105 -0.4202
17815THY    HP535840   4.933   0.153   4.702  2.1199 -1.5290 -0.0440
17815THY    HP635841   4.981   0.102   4.547  1.7651  1.6495 -1.4112
17815THY    HP735842   4.862   0.005   4.634 -1.3777 -2.1902 -0.3899
17815THY    CA335843   4.649   0.185   4.773 -0.7156 -0.1830 -0.5920
17815THY    HA335844   4.718   0.110   4.813 -1.6254  0.0481 -1.3205
17815THY    CA435845   4.546   0.242   4.855 -0.1811  0.5064 -0.7946
17815THY    HA435846   4.532   0.208   4.957 -0.1985  0.2269 -1.6718
17815THY    CA535847   4.460   0.336   4.800 -0.9553  0.5611  0.3527
17815THY    CM135848   4.335   0.380   4.874 -0.0003  0.7091  0.7047
17815THY    HM135849   4.363   0.445   4.957 -1.7003  0.1488  2.2555
17815THY    HM235850   4.278   0.295   4.914 -0.0870 -1.4998 -0.3495
17815THY    HM335851   4.271   0.445   4.813  0.1936 -1.7649 -1.2457
17815THY    CA635852   4.492   0.399   4.681  0.2816  0.6822  0.4126
17815THY    HA635853   4.444   0.494   4.658  0.2235 -0.1729  0.1779
17816THY      O35854   7.781   6.222   2.223  0.6079 -0.5075 -0.0715
17816THY     HO35855   7.768   6.311   2.260  1.9108  1.6586 -0.7062
17816THY    CA135856   7.708   6.150   2.309  0.5749 -0.4144 -0.3582
17816THY    CA235857   7.717   6.009   2.318 -0.0004  0.3251  0.4710
17816THY    CP135858   7.808   5.930   2.222 -0.8927 -0.0114  0.1990
17816THY    HP135859   7.886   5.995   2.181 -0.4393  2.1989  1.1215
17816THY    CP235860   7.718   5.884   2.103  0.2461  0.4503 -0.6690
17816THY    HP235861   7.690   5.972   2.044 -0.0966  0.3131 -0.8705
17816THY    HP335862   7.626   5.847   2.150  0.3935  2.2360  1.0552
17816THY    HP435863   7.772   5.822   2.030 -0.7032 -1.7660  1.0075
17816THY    CP335864   7.876   5.812   2.290  0.3054 -0.1256 -0.3261
17816THY    HP535865   7.933   5.750   2.220 -1.1438  0.3606 -2.2959
17816THY    HP635866   7.812   5.731   2.326 -1.4493  0.1791  1.1278
17816THY    HP735867   7.954   5.845   2.360 -1.0510  3.3164 -3.6808
17816THY    CA335868   7.641   5.941   2.419 -0.2683  0.1819  0.3688
17816THY    HA335869   7.660   5.835   2.430 -1.2001 -0.4018  0.1333
17816THY    CA435870   7.567   6.010   2.508 -0.1769 -0.5252  0.3841
17816THY    HA435871   7.514   5.958   2.587  1.6578  2.0555  2.2140
17816THY    CA535872   7.554   6.144   2.487  0.0976 -0.5917  0.4429
17816THY    CM135873   7.463   6.214   2.582 -0.8507  0.4043 -0.1861
17816THY    HM135874   7.426   6.306   2.535  1.3722  0.2858  0.7163
17816THY    HM235875   7.516   6.226   2.677  0.5358 -0.3647 -0.0249
17816THY    HM335876   7.375   6.158   2.614 -2.1687  0.4432  1.8070
17816THY    CA635877   7.623   6.216   2.398 -0.4095  0.2500  0.3235
17816THY    HA635878   7.621   6.324   2.405  0.5938  0.4636  0.3412
17817THY      O35879   0.649   5.801   4.675 -0.2276 -0.1461 -0.6666
17817THY     HO35880   0.717   5.834   4.736 -1.8491 -0.4159  3.7850
17817THY    CA135881   0.538   5.787   4.748 -0.2063 -0.4382 -0.2166
17817THY    CA235882   0.427   5.692   4.720 -0.0261  0.2151  0.2597
17817THY    CP135883   0.436   5.608   4.587  0.1048 -0.2014 -0.3423
17817THY    HP135884   0.523   5.636   4.528 -1.3234 -1.6721  1.2464
17817THY    CP235885   0.314   5.622   4.500  0.4753 -0.3967  0.1190
17817THY    HP235886   0.298   5.728   4.478  1.2873 -0.1827  0.2906
17817THY    HP335887   0.217   5.589   4.539  1.1403  2.1772  1.0112
17817THY    HP435888   0.321   5.578   4.399  1.2081 -0.4203  0.2718
17817THY    CP335889   0.460   5.460   4.613 -0.2167 -0.6261 -0.0159
17817THY    HP535890   0.550   5.442   4.672  0.0453 -1.1264 -0.3748
17817THY    HP635891   0.477   5.407   4.518  1.5006 -0.1046 -0.4747
17817THY    HP735892   0.372   5.420   4.663 -0.2135 -0.2928  0.3919
17817THY    CA335893   0.324   5.672   4.814 -0.8178  0.1073  0.1050
17817THY    HA335894   0.251   5.594   4.796  0.1841 -1.3169 -0.5693
17817THY    CA435895   0.336   5.732   4.934 -0.1886  0.1842  1.1093
17817THY    HA435896   0.257   5.710   5.005  0.5205  1.3587  2.1597
17817THY    CA535897   0.423   5.829   4.967 -0.4555  0.5628  0.1965
17817THY    CM135898   0.438   5.879   5.106  0.6574 -0.9680 -0.4341
17817THY    HM135899   0.343   5.868   5.160  0.4173 -0.7848  1.9947
17817THY    HM235900   0.451   5.986   5.091 -0.3435  0.9948  0.0225
17817THY    HM335901   0.517   5.830   5.165 -0.6831  0.7555 -0.6392
17817THY    CA635902   0.534   5.852   4.877  0.0625  0.0774  0.2795
17817THY    HA635903   0.616   5.918   4.904  1.0354 -1.4839 -0.2245
17818THY      O35904   7.741   6.314   1.971 -0.6754 -0.0951  0.3600
17818THY     HO35905   7.767   6.252   2.042 -1.9763  0.5949  0.5545
17818THY    CA135906   7.781   6.245   1.861 -0.5790 -0.2630  0.5412
17818THY    CA235907   7.724   6.272   1.733  0.5501  0.2911  0.1880
17818THY    CP135908   7.613   6.382   1.730  0.6904  0.0142 -0.4855
17818THY    HP135909   7.561   6.365   1.825 -1.3128 -1.1077 -0.9293
17818THY    CP235910   7.503   6.371   1.625 -0.1107 -0.4083  0.9706
17818THY    HP235911   7.466   6.267   1.624 -0.3296  1.2760  1.0025
17818THY    HP335912   7.535   6.388   1.522 -1.6390 -1.5177 -2.1000
17818THY    HP435913   7.417   6.435   1.648 -0.8741 -0.6990  0.0809
17818THY    CP335914   7.666   6.525   1.730  0.3268 -0.3251 -0.2077
17818THY    HP535915   7.748   6.545   1.799 -0.3851  0.9598 -1.5205
17818THY    HP635916   7.580   6.583   1.766 -0.9856 -1.5800 -1.2957
17818THY    HP735917   7.684   6.566   1.630  0.5782 -0.1009  0.2348
17818THY    CA335918   7.771   6.190   1.624  0.2173  0.6910  0.5002
17818THY    HA335919   7.725   6.201   1.526  2.4003 -0.4132  0.2460
17818THY    CA435920   7.882   6.110   1.643 -0.4804 -0.2825 -0.2125
17818THY    HA435921   7.924   6.061   1.555 -0.6198 -0.6066  0.2482
17818THY    CA535922   7.939   6.094   1.772 -0.6253  0.1386  0.4633
17818THY    CM135923   8.072   6.012   1.774 -0.5200  0.2208  0.4326
17818THY    HM135924   8.139   6.046   1.855 -1.4380  1.5772 -0.8361
17818THY    HM235925   8.129   6.013   1.681  1.3607  1.3140  1.1426
17818THY    HM335926   8.037   5.910   1.794  1.7671 -3.2908 -1.2314
17818THY    CA635927   7.889   6.160   1.883 -0.5405 -0.0751 -0.5420
17818THY    HA635928   7.935   6.158   1.981  1.3678 -0.8764  0.8315
17819THY      O35929   4.518   8.977   5.906 -0.1317  0.1416 -0.0693
17819THY     HO35930   4.491   9.052   5.850 -1.3635  0.0247 -0.5867
17819THY    CA135931   4.645   8.937   5.885 -0.5765  0.4700 -0.3493
17819THY    CA235932   4.707   8.824   5.928  0.3839  0.4866  0.0804
17819THY    CP135933   4.616   8.710   5.972 -0.8647 -0.1574 -0.4805
17819THY    HP135934   4.513   8.743   5.954 -1.2191  1.1500 -0.8137
17819THY    CP235935   4.620   8.678   6.122 -0.1603  0.2302  0.2319
17819THY    HP235936   4.680   8.590   6.149 -2.8425 -0.4134 -1.9439
17819THY    HP335937   4.518   8.665   6.159 -0.0290  0.7762  0.7259
17819THY    HP435938   4.650   8.768   6.177 -1.4905  0.1886  0.7164
17819THY    CP335939   4.638   8.579   5.901  0.8199  0.1984  0.2652
17819THY    HP535940   4.553   8.513   5.919  0.2336 -2.0781  0.3330
17819THY    HP635941   4.731   8.526   5.926  2.0697 -0.7394  1.9353
17819THY    HP735942   4.644   8.601   5.794  2.2586  0.1761 -0.1199
17819THY    CA335943   4.849   8.810   5.908  0.2590  0.4425  0.3079
17819THY    HA335944   4.892   8.714   5.936  0.3104  1.3860  0.5926
17819THY    CA435945   4.934   8.903   5.839  0.5000  0.6830 -0.0952
17819THY    HA435946   5.041   8.892   5.831  0.4041  0.4774 -0.9270
17819THY    CA535947   4.861   9.020   5.796 -0.3094  0.0825  0.3056
17819THY    CM135948   4.937   9.134   5.731  0.2214  0.5290 -0.0881
17819THY    HM135949   4.880   9.142   5.638  2.5872 -1.0463 -0.7233
17819THY    HM235950   5.040   9.105   5.706  0.3177  0.2260  0.5131
17819THY    HM335951   4.935   9.233   5.778  1.0211 -1.2905  0.8373
17819THY    CA635952   4.731   9.038   5.825  0.4298 -0.2556 -0.0701
17819THY    HA635953   4.685   9.135   5.811  0.9560 -1.1043  0.0560
17820THY      O35954   4.817   5.010   6.233 -0.1240 -0.0054  0.3991
17820THY     HO35955   4.763   4.940   6.192  2.4722 -0.4012 -1.5504
17820THY    CA135956   4.899   4.925   6.298  0.4011  0.9948 -0.1411
17820THY    CA235957   4.990   4.968   6.396 -0.0968  0.0751 -0.1063
17820THY    CP135958   5.006   5.120   6.422  0.3461 -0.4026  0.2137
17820THY    HP135959   4.984   5.174   6.329 -0.1407 -3.0190 -4.0089
17820THY    CP235960   5.143   5.167   6.459  0.3683 -0.2025 -0.6098
17820THY    HP235961   5.147   5.276   6.469 -1.1602  0.2829 -0.5788
17820THY    HP335962   5.220   5.139   6.386  1.6519  0.7648  0.2927
17820THY    HP435963   5.187   5.130   6.553  1.0379  0.7948  2.4157
17820THY    CP335964   4.902   5.162   6.524  0.0373 -0.1500  0.5472
17820THY    HP535965   4.801   5.132   6.496  0.8011 -0.7089 -1.7678
17820THY    HP635966   4.902   5.270   6.537 -0.3976  0.9945  0.4307
17820THY    HP735967   4.917   5.115   6.622  2.3077 -0.6015  0.1900
17820THY    CA335968   5.073   4.869   6.451 -0.2276 -0.1063 -0.8845
17820THY    HA335969   5.155   4.898   6.517  0.1102  0.5002 -3.0051
17820THY    CA435970   5.060   4.736   6.402  0.3283  0.1159 -0.3712
17820THY    HA435971   5.131   4.664   6.442  0.5178  0.5934  0.0712
17820THY    CA535972   4.966   4.698   6.303 -0.6122 -0.1864 -0.5111
17820THY    CM135973   4.969   4.550   6.254 -1.0010  0.0943  0.3873
17820THY    HM135974   4.878   4.497   6.284 -0.7171 -0.2239 -0.2857
17820THY    HM235975   5.058   4.492   6.279 -0.5615 -1.5649  0.2901
17820THY    HM335976   4.973   4.547   6.144  3.2991  0.1087  0.5950
17820THY    CA635977   4.884   4.795   6.247 -0.3368 -0.2278  0.7158
17820THY    HA635978   4.816   4.775   6.165  0.6465 -1.3156  1.7349
17821THY      O35979   7.751   7.720   3.461 -0.0717 -0.2204  0.0524
17821THY     HO35980   7.817   7.656   3.432  0.7838 -0.2335  0.9149
17821THY    CA135981   7.631   7.666   3.443  0.8887 -0.0161  0.5334
17821THY    CA235982   7.503   7.735   3.472  0.2050  0.4562 -0.4372
17821THY    CP135983   7.503   7.879   3.504  0.0533  0.9032 -0.2173
17821THY    HP135984   7.604   7.908   3.535  1.0546 -1.5451 -0.8426
17821THY    CP235985   7.416   7.918   3.621  0.5016 -0.1781  0.2093
17821THY    HP235986   7.445   8.022   3.639  0.6978 -0.1368  0.1483
17821THY    HP335987   7.434   7.849   3.704 -0.5517 -0.4558 -0.4269
17821THY    HP435988   7.311   7.914   3.589  0.8790 -1.4659 -0.1143
17821THY    CP335989   7.463   7.966   3.383 -0.3130  0.3786  0.1992
17821THY    HP535990   7.459   8.073   3.407  0.8236 -0.7802  0.5318
17821THY    HP635991   7.369   7.930   3.341 -0.3141 -0.2410  0.9007
17821THY    HP735992   7.542   7.959   3.307 -0.8761 -0.1587 -0.3072
17821THY    CA335993   7.383   7.661   3.464 -0.4934 -0.1129  0.1395
17821THY    HA335994   7.289   7.712   3.483 -1.0411 -0.2271 -0.8202
17821THY    CA435995   7.393   7.534   3.414  0.7863 -0.1297 -0.1805
17821THY    HA435996   7.300   7.479   3.414 -1.3379 -2.7157  3.0513
17821THY    CA535997   7.511   7.472   3.372  0.7531  0.2669  0.5673
17821THY    CM135998   7.508   7.320   3.350  0.4566  0.0243  0.0411
17821THY    HM135999   7.598   7.268   3.385  0.4305 -0.5218 -0.3817
17821THY    HM236000   7.497   7.299   3.243  1.0420  0.2920 -1.7926
17821THY    HM336001   7.416   7.269   3.381  1.4044  0.2232 -1.6211
17821THY    CA636002   7.637   7.534   3.404 -0.6923  0.3773  0.1054
17821THY    HA636003   7.730   7.481   3.385 -1.4471 -1.1543 -0.7694
17822THY      O36004   3.835   4.125   7.115  0.4008 -0.0177  0.1906
17822THY     HO36005   3.803   4.154   7.203 -0.7158 -0.6111  0.8527
17822THY    CA136006   3.788   4.223   7.034 -1.6670  0.4408  0.2767
17822THY    CA236007   3.730   4.193   6.906 -0.0700  0.0422  0.0850
17822THY    CP136008   3.714   4.049   6.862 -0.2823 -0.3759  0.5971
17822THY    HP136009   3.718   3.981   6.948 -1.4067 -1.8164 -1.4031
17822THY    CP236010   3.827   4.000   6.771 -0.2178 -0.5786  0.1187
17822THY    HP236011   3.804   4.029   6.668 -1.4841 -0.2384  0.4246
17822THY    HP336012   3.843   3.893   6.783  2.3903 -0.1784  0.4743
17822THY    HP436013   3.924   4.038   6.806 -1.0824  1.8255  0.2683
17822THY    CP336014   3.575   4.014   6.795 -0.1619  0.5009  0.1288
17822THY    HP536015   3.567   4.075   6.704 -1.2383 -0.3787 -1.2661
17822THY    HP636016   3.484   4.019   6.856 -0.0487  0.7538 -0.8032
17822THY    HP736017   3.572   3.910   6.761 -5.8826  1.4774 -0.3536
17822THY    CA336018   3.682   4.299   6.819  0.7525  0.1557  0.2335
17822THY    HA336019   3.634   4.277   6.724  0.2369 -0.0179  1.9742
17822THY    CA436020   3.698   4.430   6.875 -0.6809  0.4032  0.0938
17822THY    HA436021   3.660   4.520   6.827 -0.2050  0.3502  0.2721
17822THY    CA536022   3.740   4.456   7.004 -0.5719 -0.2857 -0.3828
17822THY    CM136023   3.745   4.594   7.057  0.7008  0.4353 -0.6798
17822THY    HM136024   3.702   4.674   6.995 -0.7813  1.9705 -0.2181
17822THY    HM236025   3.848   4.615   7.088  0.1750  1.5938  0.2922
17822THY    HM336026   3.693   4.589   7.153  0.8746  0.8040  2.8134
17822THY    CA636027   3.796   4.352   7.080  0.3121 -0.1185  0.1452
17822THY    HA636028   3.834   4.363   7.182  0.7732 -0.0695 -1.5208
17823THY      O36029   0.888   6.887   7.218  0.3220 -0.1312 -0.1062
17823THY     HO36030   0.818   6.821   7.231 -0.3820  0.9581  0.8283
17823THY    CA136031   0.895   6.961   7.333  0.5931 -0.1027  0.9402
17823THY    CA236032   0.919   7.098   7.343 -0.3705 -0.0455  0.1091
17823THY    CP136033   0.933   7.182   7.213  0.0323  0.4137 -0.2819
17823THY    HP136034   0.895   7.118   7.132  0.2061  1.0366 -1.1882
17823THY    CP236035   1.089   7.205   7.189  0.1529  0.2814  0.3456
17823THY    HP236036   1.141   7.272   7.258  1.5726  0.4230 -0.8535
17823THY    HP336037   1.110   7.230   7.085 -0.7160 -0.6391 -2.4008
17823THY    HP436038   1.139   7.108   7.186 -0.7501 -1.1606 -0.1061
17823THY    CP336039   0.862   7.315   7.202  0.1585  0.3113  0.6424
17823THY    HP536040   0.896   7.380   7.121 -3.9184 -3.1023 -1.0463
17823THY    HP636041   0.872   7.374   7.294  2.1411  0.6660 -0.1431
17823THY    HP736042   0.755   7.302   7.183  0.4381 -1.0649  0.2476
17823THY    CA336043   0.919   7.157   7.472  0.4982 -0.6969 -0.1465
17823THY    HA336044   0.935   7.264   7.482 -2.5424 -0.1374  0.3526
17823THY    CA436045   0.909   7.082   7.588  0.2437 -0.6327 -0.2272
17823THY    HA436046   0.883   7.119   7.686 -2.1958 -0.6456 -1.6521
17823THY    CA536047   0.905   6.942   7.569 -0.0058 -0.9978 -0.0578
17823THY    CM136048   0.918   6.840   7.680  0.6750  0.3785  0.7616
17823THY    HM136049   0.820   6.819   7.723  0.0943 -1.7332 -1.3090
17823THY    HM236050   0.979   6.883   7.760 -0.8440  1.4667  0.9520
17823THY    HM336051   0.969   6.746   7.655  0.4354 -0.1155  0.7567
17823THY    CA636052   0.891   6.881   7.448 -0.5552  0.5679  0.7928
17823THY    HA636053   0.873   6.775   7.433 -1.8364  0.1877  1.0492
17824THY      O36054   8.692   6.160   6.914  0.0149  0.5377 -0.1526
17824THY     HO36055   8.734   6.166   6.826  0.0358  0.5882  0.5401
17824THY    CA136056   8.562   6.131   6.886 -0.2836 -0.2497 -0.1796
17824THY    CA236057   8.473   6.115   6.996 -0.2429 -0.3741  0.0660
17824THY    CP136058   8.531   6.116   7.144  0.3322  0.1363  0.4326
17824THY    HP136059   8.626   6.170   7.155  2.1556  1.4373 -2.7422
17824THY    CP236060   8.554   5.975   7.190  0.5011  0.4631  0.3851
17824THY    HP236061   8.607   5.964   7.285  0.2632  0.7436  1.5153
17824THY    HP336062   8.606   5.934   7.103  0.6699  1.2875 -1.2165
17824THY    HP436063   8.458   5.926   7.207  0.4362 -2.0164 -0.4748
17824THY    CP336064   8.432   6.190   7.237 -0.4646 -0.6535  0.3859
17824THY    HP536065   8.475   6.201   7.337 -0.8782 -0.4317  0.0245
17824THY    HP636066   8.340   6.135   7.258  0.0207  2.0079  0.4511
17824THY    HP736067   8.409   6.289   7.197 -1.6424  1.2649  0.9442
17824THY    CA336068   8.339   6.097   6.970 -0.0239  0.4534 -0.3921
17824THY    HA336069   8.278   6.074   7.057 -1.3151 -0.6949 -1.5131
17824THY    CA436070   8.289   6.112   6.838 -0.7354  0.1191  0.2103
17824THY    HA436071   8.187   6.086   6.813 -0.9832 -0.4412  1.6509
17824THY    CA536072   8.374   6.125   6.732 -0.2881  0.7265 -0.1019
17824THY    CM136073   8.327   6.123   6.590  0.4551  0.1116 -0.6109
17824THY    HM136074   8.379   6.199   6.530  2.0923  2.5723  0.3498
17824THY    HM236075   8.220   6.149   6.588  0.1902  1.6057 -1.4892
17824THY    HM336076   8.342   6.029   6.537  0.6829  1.0241 -1.0985
17824THY    CA636077   8.517   6.137   6.757  0.8559 -0.8680  0.3172
17824THY    HA636078   8.584   6.160   6.675  0.5181 -0.4282  3.2538
17825THY      O36079   8.173   8.577   4.895 -0.3050  0.6643 -0.1578
17825THY     HO36080   8.090   8.544   4.856 -0.0142 -0.8032  0.7203
17825THY    CA136081   8.143   8.692   4.957 -0.1102  0.4379  0.5284
17825THY    CA236082   8.240   8.783   5.012  0.3895  0.0539  0.5599
17825THY    CP136083   8.394   8.754   4.990 -0.4495 -0.1330  0.0672
17825THY    HP136084   8.414   8.676   4.915  3.0819  2.1056 -1.4125
17825THY    CP236085   8.472   8.704   5.109 -0.5666  0.3356  0.2905
17825THY    HP236086   8.571   8.662   5.087 -0.6294 -0.2061  0.4311
17825THY    HP336087   8.422   8.620   5.160 -0.4912 -1.9594 -1.2277
17825THY    HP436088   8.495   8.775   5.189 -0.4947 -0.4646  1.1675
17825THY    CP336089   8.462   8.881   4.942  0.7227  0.3047  0.4169
17825THY    HP536090   8.463   8.957   5.020 -1.4434  0.6705  0.1508
17825THY    HP636091   8.412   8.918   4.852  0.8030  0.6846  1.4592
17825THY    HP736092   8.562   8.858   4.905 -0.3524 -1.6257 -1.6225
17825THY    CA336093   8.190   8.897   5.085 -0.1380 -0.2412  0.1470
17825THY    HA336094   8.262   8.967   5.125  1.7433 -0.6933 -1.4239
17825THY    CA436095   8.052   8.918   5.099  0.7368 -0.8533  0.0637
17825THY    HA436096   8.020   9.010   5.147  0.7639 -0.3774 -0.1734
17825THY    CA536097   7.958   8.831   5.046 -0.2561  0.4255  0.3374
17825THY    CM136098   7.815   8.872   5.043  0.6824 -0.7173 -0.0167
17825THY    HM136099   7.789   8.947   5.119  1.1429 -1.1129  0.5488
17825THY    HM236100   7.747   8.787   5.053 -0.3200 -2.0882  0.5948
17825THY    HM336101   7.797   8.916   4.945  1.7803 -1.4439 -1.1119
17825THY    CA636102   8.007   8.720   4.974 -0.1200  0.0289  0.0685
17825THY    HA636103   7.936   8.651   4.932  0.6714 -1.1246 -0.0706
17826THY      O36104   8.057   5.522   6.405 -0.0132 -0.1115 -0.1598
17826THY     HO36105   8.069   5.598   6.464 -1.0565 -1.3230  1.0029
17826THY    CA136106   7.954   5.451   6.452  0.2911  0.2263 -0.8690
17826THY    CA236107   7.882   5.366   6.374 -0.5023 -0.5698 -0.0483
17826THY    CP136108   7.920   5.346   6.225 -0.1358 -0.0968 -0.2738
17826THY    HP136109   7.995   5.421   6.197  1.0547  2.2843 -0.4572
17826THY    CP236110   7.808   5.371   6.131  0.1097 -0.4978 -0.0511
17826THY    HP236111   7.722   5.312   6.164 -1.3640 -2.0883  1.1278
17826THY    HP336112   7.829   5.349   6.026 -1.3730 -0.9585  0.6106
17826THY    HP436113   7.783   5.476   6.147 -1.5445 -0.5698 -0.4042
17826THY    CP336114   7.976   5.208   6.205  0.5804 -0.6419 -0.6139
17826THY    HP536115   8.071   5.205   6.261  0.2670  0.2013  2.3055
17826THY    HP636116   7.973   5.180   6.099 -3.5452 -0.5536 -1.0395
17826THY    HP736117   7.910   5.139   6.259  0.2191 -1.5834 -1.0251
17826THY    CA336118   7.774   5.295   6.441  0.1009  0.3468 -1.1483
17826THY    HA336119   7.711   5.220   6.393 -2.2788  2.1591 -0.4246
17826THY    CA436120   7.745   5.327   6.582 -0.4275  0.4981 -0.0249
17826THY    HA436121   7.676   5.265   6.639 -0.0307 -0.0190 -0.9657
17826THY    CA536122   7.813   5.426   6.650 -0.3185 -0.3287  0.0691
17826THY    CM136123   7.790   5.440   6.794  0.0130 -0.0070  0.3938
17826THY    HM136124   7.694   5.477   6.833  0.2476 -0.1532  1.1866
17826THY    HM236125   7.865   5.510   6.833 -1.6697 -1.1239  2.9764
17826THY    HM336126   7.808   5.343   6.841 -2.0175 -1.9389 -1.0171
17826THY    CA636127   7.924   5.481   6.584  0.3591 -0.8420  0.9741
17826THY    HA636128   7.998   5.532   6.644  0.6140  0.8922 -1.2625
17827THY      O36129   3.900   6.086   5.396 -0.1909 -0.1122 -0.0937
17827THY     HO36130   3.995   6.069   5.382  0.3430 -1.1507  3.0461
17827THY    CA136131   3.884   6.196   5.315  0.0637 -0.2380  0.3999
17827THY    CA236132   3.759   6.229   5.262 -0.4272 -0.0898  0.0391
17827THY    CP136133   3.646   6.133   5.289 -0.1403  0.2594 -0.0757
17827THY    HP136134   3.669   6.040   5.342 -2.3191  0.1321 -0.7489
17827THY    CP236135   3.580   6.085   5.162 -0.4937 -0.6148 -0.3863
17827THY    HP236136   3.651   6.070   5.080  1.0771  0.8838 -1.4265
17827THY    HP336137   3.497   6.143   5.120 -0.1506 -1.2024 -0.3072
17827THY    HP436138   3.543   5.984   5.179  0.6890  1.4911 -0.5102
17827THY    CP336139   3.540   6.204   5.374  0.0612 -0.0526 -0.4710
17827THY    HP536140   3.587   6.241   5.466 -0.5160 -0.2407  0.7828
17827THY    HP636141   3.470   6.136   5.422 -0.6481 -0.5691 -0.1145
17827THY    HP736142   3.487   6.290   5.331  1.0571  0.5318  0.4590
17827THY    CA336143   3.740   6.339   5.166 -0.4107 -1.0943  0.5824
17827THY    HA336144   3.642   6.355   5.124 -0.6561 -0.3865  0.9856
17827THY    CA436145   3.854   6.410   5.138 -0.2675 -0.2425  0.6208
17827THY    HA436146   3.855   6.488   5.063 -0.5458 -0.9822 -0.0718
17827THY    CA536147   3.980   6.378   5.202  0.2495  0.1859  0.3168
17827THY    CM136148   4.105   6.449   5.163  0.2531 -0.2266  0.8072
17827THY    HM136149   4.090   6.523   5.084  1.4310  0.4049  1.7644
17827THY    HM236150   4.177   6.380   5.119  0.7516 -0.5706  1.5287
17827THY    HM336151   4.155   6.502   5.246  1.4985 -0.2806 -0.2456
17827THY    CA636152   3.997   6.262   5.282 -0.0115 -0.0706 -0.4850
17827THY    HA636153   4.095   6.245   5.325  0.6229 -0.2654  2.1731
17828THY      O36154   5.776   2.034   3.926  0.0658  0.0226 -0.0203
17828THY     HO36155   5.775   2.124   3.890 -5.0407 -0.0661  0.1716
17828THY    CA136156   5.695   2.044   4.039  0.4339  0.1155 -0.4084
17828THY    CA236157   5.600   1.947   4.073 -0.1171  0.1055  0.2839
17828THY    CP136158   5.579   1.825   3.989  0.0934 -0.9057  0.3038
17828THY    HP136159   5.645   1.830   3.902  1.2900 -0.0404  0.1838
17828THY    CP236160   5.434   1.821   3.945 -0.0481 -0.2541  0.4779
17828THY    HP236161   5.414   1.740   3.874 -1.2731  0.0505  0.4970
17828THY    HP336162   5.417   1.912   3.885 -3.6137  1.9009  1.4510
17828THY    HP436163   5.365   1.843   4.027 -0.2978 -0.5265  0.7183
17828THY    CP336164   5.621   1.703   4.076  0.2115 -0.3946 -0.0214
17828THY    HP536165   5.626   1.617   4.009 -1.3357 -2.9281  1.7188
17828THY    HP636166   5.560   1.687   4.166 -0.3061 -0.4372  1.5252
17828THY    HP736167   5.725   1.722   4.103  0.5425 -2.3943  1.2969
17828THY    CA336168   5.528   1.967   4.192  0.1320 -0.0232 -0.3618
17828THY    HA336169   5.461   1.887   4.222  1.5222 -0.8590 -1.8816
17828THY    CA436170   5.547   2.086   4.274  0.1375  0.0215 -0.2900
17828THY    HA436171   5.498   2.097   4.370  3.8260  2.1424 -0.6639
17828THY    CA536172   5.645   2.183   4.242  0.2463 -0.3118  0.4693
17828THY    CM136173   5.669   2.303   4.330  0.5191 -0.4692  0.5293
17828THY    HM136174   5.740   2.360   4.269  0.7198 -0.7659 -0.0317
17828THY    HM236175   5.704   2.281   4.431  2.6276 -1.3706 -0.5861
17828THY    HM336176   5.579   2.365   4.332  0.8582 -0.4434  1.0253
17828THY    CA636177   5.718   2.164   4.119  0.4395 -0.0169 -0.1941
17828THY    HA636178   5.786   2.242   4.088 -1.9310 -2.3231  1.1291
17829THY      O36179   2.627   7.610   4.606  0.0062 -0.5426 -0.5022
17829THY     HO36180   2.625   7.582   4.700  1.8026  0.5371  2.4666
17829THY    CA136181   2.586   7.735   4.621  0.9096  0.2164  0.4170
17829THY    CA236182   2.536   7.804   4.510  0.1252  0.2231  0.4272
17829THY    CP136183   2.529   7.741   4.372  0.2881 -0.6793  0.0182
17829THY    HP136184   2.507   7.634   4.383 -0.8353 -1.1395  0.1958
17829THY    CP236185   2.669   7.745   4.297 -0.0329  1.0365 -0.6631
17829THY    HP236186   2.759   7.717   4.353  3.0152 -2.2682  1.6488
17829THY    HP336187   2.703   7.838   4.250  1.4018  1.0297 -1.1640
17829THY    HP436188   2.674   7.663   4.225  1.3933  1.9621 -1.4279
17829THY    CP336189   2.421   7.813   4.290 -0.4141  0.5073  0.9472
17829THY    HP536190   2.390   7.751   4.205 -0.6710  0.3755  1.2477
17829THY    HP636191   2.454   7.911   4.254  0.5451  1.1172  0.8603
17829THY    HP736192   2.328   7.819   4.348  0.9030  2.5501  2.7905
17829THY    CA336193   2.479   7.926   4.541  0.3783  0.1133 -0.1950
17829THY    HA336194   2.426   7.983   4.466 -1.0223 -0.4398 -2.1207
17829THY    CA436195   2.488   7.979   4.672  0.2341  0.7153  0.5763
17829THY    HA436196   2.457   8.082   4.685 -0.2975  0.1733  0.4933
17829THY    CA536197   2.546   7.909   4.774  0.1040  0.1253  0.0724
17829THY    CM136198   2.552   7.968   4.914 -0.3202 -0.3071  0.1699
17829THY    HM136199   2.490   7.908   4.981  1.3192 -0.4707 -1.7926
17829THY    HM236200   2.512   8.070   4.916  1.9115 -0.1752  1.1037
17829THY    HM336201   2.650   7.960   4.964 -0.8769  0.9645  0.8917
17829THY    CA636202   2.581   7.783   4.753  0.0468 -0.1112 -0.2132
17829THY    HA636203   2.635   7.733   4.833  1.2691  0.9824  2.6527
17830THY      O36204   2.774   0.731   5.866  0.1381 -0.0885  0.4069
17830THY     HO36205   2.845   0.714   5.930  0.3889 -0.4412  0.0783
17830THY    CA136206   2.684   0.626   5.869 -0.2099 -0.6842 -0.3114
17830THY    CA236207   2.662   0.549   5.748  0.3601  0.0013  0.3728
17830THY    CP136208   2.733   0.585   5.617 -0.4916  0.8715 -1.3181
17830THY    HP136209   2.813   0.655   5.646 -1.3603  2.8798 -1.1001
17830THY    CP236210   2.637   0.678   5.525  0.1105  0.1986 -0.0258
17830THY    HP236211   2.608   0.762   5.589  2.2142 -0.3088  1.1549
17830THY    HP336212   2.554   0.613   5.494  0.6960  1.2452 -1.3255
17830THY    HP436213   2.681   0.721   5.434 -0.3171 -0.2131 -0.4422
17830THY    CP336214   2.788   0.464   5.549 -0.3080 -0.3583  0.0740
17830THY    HP536215   2.827   0.476   5.448 -2.6230 -1.6373 -2.1901
17830THY    HP636216   2.710   0.395   5.515  1.5083 -0.5985 -1.9820
17830THY    HP736217   2.859   0.413   5.615 -0.2987  0.6909  1.3824
17830THY    CA336218   2.569   0.442   5.752  0.1432  0.3851  0.0640
17830THY    HA336219   2.537   0.383   5.667 -0.0409  0.7997 -0.4514
17830THY    CA436220   2.513   0.405   5.876 -0.6044 -0.5095  0.0414
17830THY    HA436221   2.443   0.323   5.886 -1.1477  1.0504  0.6504
17830THY    CA536222   2.563   0.467   5.994 -1.2864 -0.1147  0.5498
17830THY    CM136223   2.518   0.417   6.131 -0.3785 -0.6765 -0.0940
17830THY    HM136224   2.461   0.497   6.179  0.1298  2.6737 -1.5955
17830THY    HM236225   2.593   0.394   6.207  0.7642 -1.0120  2.2351
17830THY    HM336226   2.457   0.327   6.119 -2.6640  1.0799  1.1418
17830THY    CA636227   2.640   0.584   5.987 -0.5381 -0.5222 -0.7827
17830THY    HA636228   2.662   0.636   6.079 -2.4947 -1.6343  2.2300
17831THY      O36229   5.650   6.377   4.722  0.2214 -0.7226 -0.4118
17831THY     HO36230   5.662   6.393   4.817  2.1715 -1.4799  4.0727
17831THY    CA136231   5.519   6.332   4.711 -0.4147  0.5842  0.1073
17831THY    CA236232   5.473   6.254   4.603 -0.0133 -0.6052  0.0497
17831THY    CP136233   5.562   6.217   4.492 -0.1010  0.0540 -0.0951
17831THY    HP136234   5.639   6.295   4.487 -0.5215 -1.1673  0.2746
17831THY    CP236235   5.494   6.184   4.352  0.4264 -0.2452  0.7111
17831THY    HP236236   5.577   6.155   4.286  0.2690 -0.1081 -0.0521
17831THY    HP336237   5.441   6.273   4.314 -0.8743 -1.5261 -0.5654
17831THY    HP436238   5.418   6.107   4.362  0.1757  0.3108  1.0279
17831THY    CP336239   5.638   6.087   4.532 -0.4800 -0.1267 -0.1921
17831THY    HP536240   5.670   6.099   4.636  1.8526 -0.6708 -1.1331
17831THY    HP636241   5.724   6.067   4.467 -1.3149 -1.3551  0.1045
17831THY    HP736242   5.571   6.002   4.521  0.7708 -2.2808 -0.9759
17831THY    CA336243   5.337   6.206   4.614 -0.1135  0.2651 -0.2372
17831THY    HA336244   5.294   6.130   4.550  1.7931  2.3627 -3.2747
17831THY    CA436245   5.258   6.225   4.731 -0.7247  0.2633 -0.0392
17831THY    HA436246   5.165   6.172   4.748 -0.7838 -1.4775 -0.5324
17831THY    CA536247   5.304   6.317   4.829  0.1622  0.6322 -0.2973
17831THY    CM136248   5.214   6.373   4.935  0.1538  0.4116 -0.0505
17831THY    HM136249   5.108   6.349   4.921  0.0944 -0.4607  0.6904
17831THY    HM236250   5.220   6.482   4.941  0.2723 -1.2977  0.0588
17831THY    HM336251   5.250   6.341   5.034  2.4886 -0.9717 -2.0547
17831THY    CA636252   5.434   6.369   4.812 -0.1873 -0.6482 -0.3993
17831THY    HA636253   5.480   6.437   4.883 -1.1111 -1.2240  0.8567
17832THY      O36254   7.019   2.029   1.613  0.2844 -0.5626 -0.0332
17832THY     HO36255   6.947   2.014   1.549  1.0856 -0.8788 -3.3688
17832THY    CA136256   7.008   1.951   1.724  0.0813 -0.4594 -0.0001
17832THY    CA236257   7.058   1.989   1.855 -0.2969 -0.5876 -0.8724
17832THY    CP136258   7.127   2.128   1.871 -0.5391  0.9159  0.4785
17832THY    HP136259   7.136   2.175   1.772 -1.8821  0.4002 -0.3187
17832THY    CP236260   7.272   2.111   1.913 -0.4022 -0.4532  0.3915
17832THY    HP236261   7.289   2.045   1.999  1.6416 -1.9769 -1.2281
17832THY    HP336262   7.328   2.204   1.920 -0.4247  1.4035  0.3039
17832THY    HP436263   7.333   2.053   1.843  3.0197  1.1125  1.8525
17832THY    CP336264   7.041   2.217   1.955  0.0992  0.1723 -0.8616
17832THY    HP536265   7.007   2.166   2.046  0.7646  0.1483 -1.3672
17832THY    HP636266   6.949   2.237   1.900 -0.3722  1.4982  0.9631
17832THY    HP736267   7.077   2.316   1.986 -2.2306 -2.1181  0.8248
17832THY    CA336268   7.050   1.892   1.962  0.1493 -0.4140  0.3371
17832THY    HA336269   7.106   1.904   2.054  0.6039  0.0858 -3.8903
17832THY    CA436270   6.990   1.765   1.940 -0.3124 -0.1637  0.8735
17832THY    HA436271   6.976   1.689   2.016 -0.9303 -0.9674  0.1601
17832THY    CA536272   6.941   1.732   1.809  0.3255  0.2543  0.3834
17832THY    CM136273   6.877   1.593   1.793  0.1539  0.1520 -0.8038
17832THY    HM136274   6.928   1.506   1.834  1.1810 -1.7028 -1.1380
17832THY    HM236275   6.856   1.571   1.687  0.3666 -0.4597  1.5794
17832THY    HM336276   6.783   1.605   1.848  0.6848  0.5744  2.1446
17832THY    CA636277   6.945   1.828   1.709  0.3391 -0.4090 -0.9200
17832THY    HA636278   6.886   1.800   1.623 -0.7421 -0.2334  0.6473
17833THY      O36279   1.123   1.026   6.440  0.2295 -0.5033 -0.3524
17833THY     HO36280   1.188   1.096   6.458 -0.0109 -2.2880  0.3704
17833THY    CA136281   1.186   0.906   6.453 -0.0431 -0.4608 -0.3168
17833THY    CA236282   1.119   0.782   6.470 -0.1328  0.4708  1.0389
17833THY    CP136283   0.971   0.774   6.482  0.0641  0.1891  0.1022
17833THY    HP136284   0.909   0.862   6.458 -0.8132  2.1946  0.0957
17833THY    CP236285   0.918   0.718   6.619 -0.2366 -0.0210 -0.2560
17833THY    HP236286   0.946   0.612   6.622  0.4667  0.3642 -0.0630
17833THY    HP336287   0.812   0.741   6.634 -0.4433  3.1722 -2.6385
17833THY    HP436288   0.970   0.768   6.701  0.9898 -1.8579  1.6340
17833THY    CP336289   0.918   0.665   6.388 -0.4061 -0.5610 -0.1537
17833THY    HP536290   0.813   0.677   6.360 -0.7289  0.4849 -0.4343
17833THY    HP636291   0.936   0.560   6.414 -0.3431 -1.5890 -0.4059
17833THY    HP736292   0.958   0.691   6.289  1.1105 -0.4432 -1.8528
17833THY    CA336293   1.200   0.664   6.466 -0.0001  0.3947 -0.1561
17833THY    HA336294   1.157   0.565   6.482 -0.3553  1.0590  0.0987
17833THY    CA436295   1.334   0.675   6.442  0.0437  0.8602  0.4841
17833THY    HA436296   1.390   0.582   6.449  1.8465 -0.3419  1.4267
17833THY    CA536297   1.396   0.799   6.428 -0.0959 -0.2169  0.2259
17833THY    CM136298   1.543   0.816   6.409 -0.2436 -0.5228  0.0624
17833THY    HM136299   1.594   0.834   6.504 -1.1182 -0.1459  0.6087
17833THY    HM236300   1.567   0.888   6.330  1.4767  1.1886  1.4747
17833THY    HM336301   1.586   0.727   6.361  3.1001  0.9417  0.7387
17833THY    CA636302   1.321   0.915   6.434  0.5523  0.2307 -0.3341
17833THY    HA636303   1.363   1.015   6.430 -0.1783  0.0012 -0.0330
17834THY      O36304   8.060   3.146   2.457 -0.4943  0.2355  0.2897
17834THY     HO36305   8.028   3.165   2.367  0.4008 -0.4385 -1.2230
17834THY    CA136306   7.959   3.072   2.509  0.1440  0.4411 -0.2923
17834THY    CA236307   7.978   2.957   2.584 -0.6535  0.4823 -0.2351
17834THY    CP136308   8.116   2.903   2.607 -0.8015  0.5298 -0.4542
17834THY    HP136309   8.189   2.937   2.532 -0.3308  1.2237  0.0947
17834THY    CP236310   8.123   2.751   2.587 -0.1639  0.3741  0.0530
17834THY    HP236311   8.067   2.689   2.659 -1.8638 -0.3104  0.7382
17834THY    HP336312   8.226   2.713   2.582 -0.2521  2.3525 -0.5539
17834THY    HP436313   8.064   2.731   2.497  0.1026  0.1781  0.1327
17834THY    CP336314   8.160   2.929   2.751  0.7087 -0.1364 -0.2638
17834THY    HP536315   8.148   3.036   2.772  2.0967 -3.1419  0.5867
17834THY    HP636316   8.262   2.898   2.777 -0.0002  1.3233 -1.5338
17834THY    HP736317   8.100   2.874   2.824  1.2170  1.2386  0.9332
17834THY    CA336318   7.863   2.898   2.634  0.0405 -0.1009  0.4789
17834THY    HA336319   7.870   2.818   2.708  0.7702  1.8125  2.2342
17834THY    CA436320   7.737   2.939   2.602  0.1827  0.2491 -0.3751
17834THY    HA436321   7.653   2.890   2.650  0.7263  0.0129 -1.6054
17834THY    CA536322   7.722   3.048   2.513 -0.4742  0.1389  0.3097
17834THY    CM136323   7.581   3.095   2.472 -0.2109 -0.0145  0.3586
17834THY    HM136324   7.512   3.017   2.507  0.4846  0.3280 -0.1139
17834THY    HM236325   7.561   3.097   2.364  0.2307 -0.0962  1.8171
17834THY    HM336326   7.555   3.195   2.508 -1.3088 -3.4234  1.4415
17834THY    CA636327   7.833   3.116   2.468  0.1113  0.3703 -0.4703
17834THY    HA636328   7.822   3.199   2.398  0.0436  0.1042 -0.7026
17835THY      O36329   4.623   8.910   2.967  0.1304 -0.4109 -0.2661
17835THY     HO36330   4.617   8.955   3.053 -0.5124 -0.3011 -0.5381
17835THY    CA136331   4.742   8.947   2.916  0.0530  0.2275 -0.3769
17835THY    CA236332   4.753   8.983   2.779  0.3098 -0.4519  0.4675
17835THY    CP136333   4.634   8.967   2.685 -0.1032 -0.1616  0.0374
17835THY    HP136334   4.537   8.960   2.736 -0.1183  0.0710  1.5581
17835THY    CP236335   4.657   8.857   2.582 -0.2345 -0.4646  0.5095
17835THY    HP236336   4.610   8.764   2.617  0.3657  2.6486  1.2478
17835THY    HP336337   4.764   8.841   2.566 -0.1169 -0.5050  1.3174
17835THY    HP436338   4.602   8.881   2.490 -0.8144 -0.1544  0.4099
17835THY    CP336339   4.621   9.101   2.617  0.0515 -0.1307 -0.7102
17835THY    HP536340   4.520   9.103   2.574  0.4504 -1.0510  0.0212
17835THY    HP636341   4.697   9.123   2.542 -0.5743  0.2027  3.5374
17835THY    HP736342   4.622   9.181   2.692 -0.7807 -1.3049  0.4517
17835THY    CA336343   4.880   9.020   2.729  0.3498 -0.1728 -0.3542
17835THY    HA336344   4.892   9.041   2.623  0.1849 -0.4952 -1.7589
17835THY    CA436345   4.990   9.022   2.816  0.1436 -0.0173 -0.6836
17835THY    HA436346   5.081   9.063   2.774 -0.5248  0.2195  1.1351
17835THY    CA536347   4.975   8.976   2.948  0.2499 -0.5659  0.6862
17835THY    CM136348   5.099   8.968   3.036 -0.3612 -0.3329  0.6736
17835THY    HM136349   5.103   9.064   3.087  1.2493 -0.2319  0.5753
17835THY    HM236350   5.186   8.963   2.970 -0.1820 -0.2300  2.1213
17835THY    HM336351   5.088   8.888   3.111 -1.1982 -0.5211  0.5952
17835THY    CA636352   4.852   8.938   3.002 -0.0289  0.7278 -0.6698
17835THY    HA636353   4.845   8.902   3.105 -0.6173  0.2077 -2.1391
17836THY      O36354   2.886   2.299   2.360  0.0098 -0.3225 -0.8166
17836THY     HO36355   2.952   2.365   2.390 -0.7953  0.8467 -0.5173
17836THY    CA136356   2.807   2.372   2.284  0.6876  0.2143 -0.5092
17836THY    CA236357   2.788   2.349   2.145  0.0038  0.4675  0.0373
17836THY    CP136358   2.850   2.227   2.079 -0.2012 -0.6201  0.4182
17836THY    HP136359   2.893   2.158   2.153 -1.7546  0.3900  0.4822
17836THY    CP236360   2.929   2.262   1.958 -0.0674 -0.4229  0.0588
17836THY    HP236361   2.866   2.318   1.888 -0.3648 -0.5057 -0.3762
17836THY    HP336362   2.963   2.165   1.920  0.7868  1.9289 -0.6286
17836THY    HP436363   3.018   2.320   1.982 -0.6197  2.7747 -0.2132
17836THY    CP336364   2.736   2.135   2.031 -0.8653  0.2793 -0.2475
17836THY    HP536365   2.658   2.103   2.102 -2.4623 -0.6581  1.4009
17836THY    HP636366   2.773   2.038   1.994 -0.5412  0.3613 -0.1551
17836THY    HP736367   2.670   2.179   1.955 -0.7084 -1.3809 -2.6649
17836THY    CA336368   2.705   2.438   2.080  0.7034  0.3574  0.0767
17836THY    HA336369   2.693   2.418   1.974  1.2236  0.1539  0.7687
17836THY    CA436370   2.647   2.546   2.147 -0.6411  0.0799  0.3464
17836THY    HA436371   2.575   2.606   2.092 -1.0882  0.8633  0.5553
17836THY    CA536372   2.661   2.556   2.279 -0.2921 -0.5600 -0.2493
17836THY    CM136373   2.601   2.675   2.347 -0.1407  0.2344 -0.0212
17836THY    HM136374   2.492   2.688   2.343  0.1469 -1.9709  2.4396
17836THY    HM236375   2.642   2.768   2.306 -0.6677  1.8446  0.9452
17836THY    HM336376   2.610   2.676   2.456 -0.7054  0.2816  0.5665
17836THY    CA636377   2.744   2.468   2.352 -0.0947  0.7496 -0.1423
17836THY    HA636378   2.766   2.485   2.457 -0.0447  1.2212 -2.7534
17837THY      O36379   3.153   1.914   6.585 -0.4725  0.2362 -0.0122
17837THY     HO36380   3.087   1.955   6.526 -0.9229 -0.0622 -1.1479
17837THY    CA136381   3.104   1.932   6.710 -0.4023  0.0031  0.1026
17837THY    CA236382   3.172   1.876   6.822  0.1197 -0.3170 -0.1797
17837THY    CP136383   3.297   1.786   6.805  0.0340  0.9399 -0.4122
17837THY    HP136384   3.342   1.797   6.706 -2.6300 -0.4110 -0.9472
17837THY    CP236385   3.266   1.637   6.812 -0.3192 -0.2755  0.2535
17837THY    HP236386   3.199   1.597   6.736  0.1340 -0.8116  0.5041
17837THY    HP336387   3.223   1.598   6.905 -1.0073 -0.6761  0.0403
17837THY    HP436388   3.363   1.589   6.796  1.6239  2.0920  2.9970
17837THY    CP336389   3.410   1.816   6.910  0.2371 -0.4572  0.6121
17837THY    HP536390   3.389   1.766   7.005  1.5953  0.1079  1.0618
17837THY    HP636391   3.411   1.924   6.928 -0.7058 -3.7527  1.2843
17837THY    HP736392   3.503   1.775   6.870  0.5521 -0.2744  1.1386
17837THY    CA336393   3.124   1.907   6.948  0.6768  0.0459  0.1581
17837THY    HA336394   3.162   1.856   7.036  0.3599  0.5766  0.8222
17837THY    CA436395   3.015   2.000   6.963 -0.8237 -0.3601  0.5803
17837THY    HA436396   2.994   2.024   7.067  3.8775  0.9254  0.0811
17837THY    CA536397   2.955   2.052   6.849  0.0327  0.2632  0.4377
17837THY    CM136398   2.841   2.139   6.872  1.0295  0.0760 -0.0810
17837THY    HM136399   2.829   2.182   6.972  0.9655  0.6254 -1.3369
17837THY    HM236400   2.750   2.085   6.845  0.9937 -0.6459  0.3192
17837THY    HM336401   2.844   2.226   6.805  2.0481  1.0037  0.6355
17837THY    CA636402   2.993   2.017   6.718  0.5325  0.1168  0.2943
17837THY    HA636403   2.949   2.066   6.632  1.5425 -0.2275  0.6196
17838THY      O36404   3.205   4.227   2.489 -0.0564  0.1665 -0.4751
17838THY     HO36405   3.162   4.227   2.576  1.2271  0.8300  0.0702
17838THY    CA136406   3.199   4.359   2.446 -0.3120 -0.5319 -0.2637
17838THY    CA236407   3.258   4.408   2.325  0.4399 -0.0620  0.4672
17838THY    CP136408   3.319   4.305   2.228 -0.0913  0.1799  0.4226
17838THY    HP136409   3.337   4.208   2.275  1.5874 -1.0179  0.1144
17838THY    CP236410   3.460   4.361   2.183 -0.3730 -0.1729 -0.1308
17838THY    HP236411   3.521   4.382   2.272 -0.3268 -0.7684  2.5622
17838THY    HP336412   3.451   4.456   2.130  0.8251 -1.1243 -0.5195
17838THY    HP436413   3.511   4.284   2.123  0.3117  1.9910 -1.4795
17838THY    CP336414   3.228   4.291   2.094 -0.5817 -0.3590 -0.0081
17838THY    HP536415   3.245   4.389   2.048  0.0679 -0.4489 -0.1604
17838THY    HP636416   3.122   4.274   2.116 -0.8605 -1.9732 -0.4958
17838THY    HP736417   3.270   4.213   2.030  1.4192  1.9857 -0.9951
17838THY    CA336418   3.232   4.540   2.283 -0.1108 -0.2934 -0.0701
17838THY    HA336419   3.265   4.566   2.183 -1.5888 -0.5319  1.0210
17838THY    CA436420   3.140   4.617   2.353  0.5799  0.7664 -0.1435
17838THY    HA436421   3.110   4.715   2.317  1.3401  0.0058 -0.1719
17838THY    CA536422   3.083   4.567   2.469  0.2813  0.0685  0.6056
17838THY    CM136423   2.987   4.655   2.539 -0.4480 -0.4271  0.1060
17838THY    HM136424   2.938   4.617   2.630 -2.0046 -1.2077  0.1227
17838THY    HM236425   2.897   4.671   2.477 -0.7446  0.2124  1.0104
17838THY    HM336426   3.034   4.751   2.559 -1.0149 -0.6398  0.4348
17838THY    CA636427   3.112   4.439   2.519 -0.1454  0.1007  0.1416
17838THY    HA636428   3.065   4.402   2.610  0.1027 -0.5330 -1.8464
17839THY      O36429   0.959   8.343   4.594 -0.3439 -0.2055  0.0575
17839THY     HO36430   0.975   8.309   4.504  2.0537 -0.2244  1.0740
17839THY    CA136431   0.914   8.470   4.577  0.1295  0.2811 -0.0440
17839THY    CA236432   0.794   8.514   4.639  0.0506 -0.2891  0.2338
17839THY    CP136433   0.721   8.410   4.728 -0.2244 -0.0064 -0.7526
17839THY    HP136434   0.764   8.309   4.734 -1.4989  0.0052 -1.3227
17839THY    CP236435   0.572   8.383   4.676  0.6334 -0.0969 -0.6331
17839THY    HP236436   0.511   8.336   4.754 -1.3854 -2.2113 -1.7746
17839THY    HP336437   0.591   8.316   4.590 -1.3029  0.5935 -2.1511
17839THY    HP436438   0.523   8.471   4.632 -0.2828  1.7937 -0.1670
17839THY    CP336439   0.711   8.472   4.863  1.0575  0.6481 -0.7277
17839THY    HP536440   0.665   8.572   4.860  1.2864  2.1669 -0.5578
17839THY    HP636441   0.808   8.473   4.915  2.5613 -1.9136 -1.7943
17839THY    HP736442   0.649   8.402   4.920 -1.0665 -0.5876  0.0585
17839THY    CA336443   0.750   8.645   4.623  0.0763 -0.7252  0.1368
17839THY    HA336444   0.656   8.680   4.664 -0.2800 -2.7074  1.7534
17839THY    CA436445   0.828   8.723   4.531 -0.4584 -0.4527 -0.2115
17839THY    HA436446   0.805   8.825   4.501  1.8255 -1.6267  0.0366
17839THY    CA536447   0.940   8.685   4.460 -0.1084 -0.0697  0.6786
17839THY    CM136448   1.010   8.762   4.348 -0.2671 -0.2292  0.2451
17839THY    HM136449   0.971   8.865   4.345 -1.4461 -0.0735 -0.1737
17839THY    HM236450   0.991   8.723   4.248  1.4569  0.0141 -1.3271
17839THY    HM336451   1.118   8.747   4.357 -0.5215 -0.2139 -1.9096
17839THY    CA636452   0.987   8.554   4.484 -0.1114 -0.3168  0.1438
17839THY    HA636453   1.068   8.516   4.423  0.0784  0.7551 -1.2781
17840THY      O36454   7.793   7.098   1.753  0.0826 -0.0596 -0.4130
17840THY     HO36455   7.755   7.122   1.668  0.7576 -0.2605 -0.0387
17840THY    CA136456   7.699   7.110   1.845 -0.0213  0.9403  0.0578
17840THY    CA236457   7.724   7.086   1.981 -0.3672  0.2037  0.1914
17840THY    CP136458   7.866   7.080   2.044  0.1330 -0.9804 -0.5255
17840THY    HP136459   7.940   7.056   1.968  1.8387  0.7252 -0.8628
17840THY    CP236460   7.880   6.967   2.145  0.1660  0.2565  0.1530
17840THY    HP236461   7.841   6.875   2.101 -0.6007 -0.2452  0.7018
17840THY    HP336462   7.831   6.982   2.242  2.2239  1.3768 -0.0743
17840THY    HP436463   7.986   6.946   2.162 -0.0091  0.3418 -0.6593
17840THY    CP336464   7.910   7.211   2.109  0.3400  0.5496  0.0887
17840THY    HP536465   7.844   7.235   2.194  1.7085  2.2013 -1.6748
17840THY    HP636466   7.905   7.292   2.035 -2.8631  0.3657 -0.1229
17840THY    HP736467   8.013   7.209   2.146  0.0217  1.5441  0.9761
17840THY    CA336468   7.616   7.105   2.070 -0.2544  0.1476  0.3868
17840THY    HA336469   7.633   7.112   2.177 -1.9478  0.5237 -0.7561
17840THY    CA436470   7.485   7.124   2.018 -0.0440 -0.1503 -0.0128
17840THY    HA436471   7.401   7.134   2.087  0.8358  0.9153  0.2854
17840THY    CA536472   7.467   7.127   1.883  0.4351 -0.7922 -0.0647
17840THY    CM136473   7.323   7.125   1.830  0.1531  0.0490 -0.6847
17840THY    HM136474   7.265   7.040   1.866 -0.0321 -0.6581 -0.8586
17840THY    HM236475   7.324   7.141   1.722 -2.3354  0.0970  0.2257
17840THY    HM336476   7.277   7.216   1.870 -1.8855  0.3681 -1.7951
17840THY    CA636477   7.569   7.116   1.796  0.6999  0.1510 -0.4743
17840THY    HA636478   7.553   7.107   1.689 -0.9959  0.4877 -2.0532
17841THY      O36479   0.526   5.907   2.270 -0.6088  0.6999 -1.0090
17841THY     HO36480   0.599   5.959   2.232 -3.1181 -1.6872  1.0871
17841THY    CA136481   0.430   5.991   2.230  0.4157 -0.5140  0.5084
17841THY    CA236482   0.296   5.949   2.198  0.1134 -0.1998 -0.7831
17841THY    CP136483   0.260   5.806   2.220  0.1859  0.0218  0.1939
17841THY    HP136484   0.338   5.740   2.179 -0.0360  0.1342 -0.1428
17841THY    CP236485   0.136   5.762   2.143 -0.1519  0.0074  0.9008
17841THY    HP236486   0.052   5.820   2.184 -1.3805 -2.2386  0.8438
17841THY    HP336487   0.112   5.656   2.145  2.4038 -1.3090  0.2213
17841THY    HP436488   0.149   5.796   2.040 -1.4403 -0.3431  0.4134
17841THY    CP336489   0.235   5.783   2.373 -0.3839 -0.3069  0.0639
17841THY    HP536490   0.201   5.682   2.398  1.5243  0.8266 -0.3605
17841THY    HP636491   0.177   5.867   2.414  0.8633  1.4385  0.1255
17841THY    HP736492   0.326   5.802   2.431  0.8783 -1.3232 -2.4736
17841THY    CA336493   0.211   6.038   2.136 -0.8109 -0.3562  0.9240
17841THY    HA336494   0.110   6.004   2.114 -0.3941 -0.0005 -0.5994
17841THY    CA436495   0.249   6.172   2.107 -0.8570 -0.3658 -0.1601
17841THY    HA436496   0.180   6.242   2.062 -0.0850 -0.9905  0.2157
17841THY    CA536497   0.378   6.211   2.151  0.2125  0.5475 -0.0189
17841THY    CM136498   0.418   6.352   2.141  0.6762 -0.0172 -0.4035
17841THY    HM136499   0.469   6.382   2.050 -0.1323  0.1442  1.6019
17841THY    HM236500   0.482   6.374   2.227  0.6921 -0.3090  0.7499
17841THY    HM336501   0.327   6.413   2.155  1.6736 -0.7917  1.3111
17841THY    CA636502   0.472   6.123   2.213  0.2359 -0.3301 -0.1036
17841THY    HA636503   0.565   6.157   2.258 -0.6147  2.7761 -1.5010
17842THY      O36504   7.329   8.784   5.993  0.1964 -0.2249 -0.0041
17842THY     HO36505   7.392   8.843   5.946 -0.4775 -0.1244  0.8087
17842THY    CA136506   7.215   8.782   5.918  0.6340  0.4141 -0.4450
17842THY    CA236507   7.088   8.847   5.947 -0.1299  0.3672  0.3653
17842THY    CP136508   7.073   8.923   6.077 -0.1831  0.2865  0.0861
17842THY    HP136509   7.164   8.933   6.136  0.9069 -1.2807 -0.3286
17842THY    CP236510   6.967   8.851   6.167 -0.4121  0.0284 -0.2538
17842THY    HP236511   7.005   8.753   6.195  0.4407  1.4893  0.4607
17842THY    HP336512   6.874   8.839   6.111 -0.5351  0.5310 -1.8564
17842THY    HP436513   6.942   8.908   6.257 -0.0326 -0.1817  0.2521
17842THY    CP336514   7.025   9.075   6.059 -0.2090  0.0018 -0.2827
17842THY    HP536515   6.917   9.071   6.039 -0.1495 -0.2224 -3.6120
17842THY    HP636516   7.081   9.128   5.982 -2.2342  0.0111  2.0419
17842THY    HP736517   7.036   9.130   6.153 -1.2772  0.8943 -1.4863
17842THY    CA336518   6.982   8.833   5.867  0.4284 -0.5647  0.5204
17842THY    HA336519   6.886   8.877   5.895 -1.3147  1.6804 -4.0357
17842THY    CA436520   6.994   8.757   5.752 -0.7672  0.1914  0.6342
17842THY    HA436521   6.909   8.751   5.685 -1.4691  1.2107 -2.5633
17842THY    CA536522   7.113   8.689   5.721 -0.2949  0.2455  0.4325
17842THY    CM136523   7.116   8.613   5.590  0.3552  0.1935  0.0496
17842THY    HM136524   7.014   8.600   5.554  1.5667 -2.9164 -2.2680
17842THY    HM236525   7.166   8.516   5.597 -0.4562  0.8800 -0.3249
17842THY    HM336526   7.167   8.683   5.522  1.4513  1.1696  0.2290
17842THY    CA636527   7.225   8.695   5.811 -0.8678  0.4701  0.3983
17842THY    HA636528   7.315   8.641   5.783 -1.2591 -1.4559  0.6658
17843THY      O36529   3.708   6.607   4.537  0.1057 -0.1311 -0.4116
17843THY     HO36530   3.689   6.642   4.448 -1.5251  0.8588  1.4800
17843THY    CA136531   3.590   6.556   4.577  0.1340  0.2029  1.1737
17843THY    CA236532   3.581   6.434   4.648 -0.2885 -0.5692 -0.4961
17843THY    CP136533   3.709   6.351   4.683  0.2089 -0.0275  0.1088
17843THY    HP136534   3.791   6.424   4.681 -0.6401 -2.0238  1.0721
17843THY    CP236535   3.747   6.251   4.573 -0.3259  0.1691  0.5011
17843THY    HP236536   3.838   6.196   4.601  0.3851 -0.0434  1.5373
17843THY    HP336537   3.758   6.303   4.477 -1.7055  0.5445  1.5275
17843THY    HP436538   3.664   6.183   4.551 -1.0286 -0.6110  1.5927
17843THY    CP336539   3.692   6.287   4.824 -0.5201 -0.3089 -0.2610
17843THY    HP536540   3.624   6.351   4.881 -0.7653 -0.4042 -0.4369
17843THY    HP636541   3.786   6.295   4.879 -1.5247  1.3464  0.7475
17843THY    HP736542   3.647   6.187   4.827 -0.0880  4.6394 -0.5836
17843THY    CA336543   3.447   6.385   4.674  0.4645  0.4611 -0.3982
17843THY    HA336544   3.437   6.302   4.744 -0.2570  1.7191  0.7037
17843THY    CA436545   3.335   6.459   4.629  0.4073  0.2696 -1.1124
17843THY    HA436546   3.231   6.428   4.637 -0.2203 -2.4917  0.0051
17843THY    CA536547   3.345   6.592   4.577  0.0688  0.2164 -0.1205
17843THY    CM136548   3.224   6.671   4.537 -0.2311 -0.1304  0.2043
17843THY    HM136549   3.245   6.778   4.526  1.7505 -1.2635 -0.2486
17843THY    HM236550   3.151   6.653   4.617 -1.1464 -1.3947 -2.0874
17843THY    HM336551   3.171   6.631   4.450 -0.1022  0.6617 -1.8145
17843THY    CA636552   3.475   6.633   4.554  0.5765  0.9023  0.0807
17843THY    HA636553   3.490   6.726   4.499 -0.4829 -0.6095 -0.6003
17844THY      O36554   6.071   8.871   5.036 -0.0862 -0.0391  0.6197
17844THY     HO36555   6.011   8.796   5.049 -0.5134 -0.6616  0.8421
17844THY    CA136556   6.157   8.839   4.939 -0.8630  0.4061  0.0548
17844THY    CA236557   6.267   8.923   4.893 -0.6580  0.3283  0.5361
17844THY    CP136558   6.266   9.067   4.949  0.1084  0.1236  0.4157
17844THY    HP136559   6.179   9.084   5.014  1.3410  1.7102  0.9094
17844THY    CP236560   6.274   9.177   4.845  0.0234 -1.1716  0.5146
17844THY    HP236561   6.176   9.196   4.799 -0.9377  1.4149  2.4940
17844THY    HP336562   6.357   9.158   4.775  0.1059 -1.0249  0.3400
17844THY    HP436563   6.298   9.268   4.901 -1.9751 -0.2303  0.5085
17844THY    CP336564   6.380   9.075   5.045  0.4966 -0.4257 -0.5459
17844THY    HP536565   6.373   9.002   5.127 -3.2458 -0.0609  0.0090
17844THY    HP636566   6.378   9.172   5.096  0.1377 -1.4971  0.0221
17844THY    HP736567   6.480   9.071   5.001  1.8040  2.3009 -0.4498
17844THY    CA336568   6.352   8.882   4.791 -0.1808  0.3758  1.0805
17844THY    HA336569   6.430   8.946   4.753  0.0049  0.0665  0.6696
17844THY    CA436570   6.343   8.749   4.747 -0.0629 -0.2254  0.7544
17844THY    HA436571   6.421   8.713   4.680 -0.9869 -0.6968 -0.4233
17844THY    CA536572   6.243   8.663   4.785 -0.4549 -0.1462 -0.2239
17844THY    CM136573   6.233   8.526   4.717  0.5416 -0.0189 -0.5246
17844THY    HM136574   6.132   8.495   4.689  0.0801  0.4472  0.5312
17844THY    HM236575   6.284   8.449   4.776  0.4553 -0.8380 -1.2239
17844THY    HM336576   6.289   8.525   4.622  0.6677  0.0555 -0.5436
17844THY    CA636577   6.154   8.709   4.880 -0.2906  0.1747  0.6561
17844THY    HA636578   6.062   8.654   4.897 -1.6948 -1.8702  2.2341
17845THY      O36579   2.487   1.470   6.934  0.2219 -0.7236 -0.0525
17845THY     HO36580   2.522   1.380   6.933 -0.9037 -1.6010 -0.5152
17845THY    CA136581   2.389   1.450   6.844  0.2091  0.6303 -0.1137
17845THY    CA236582   2.277   1.533   6.842  0.1383 -0.7178 -1.6967
17845THY    CP136583   2.263   1.659   6.934 -0.3562  0.2933  0.2795
17845THY    HP136584   2.357   1.678   6.987  1.2173 -1.6421 -1.6607
17845THY    CP236585   2.140   1.638   7.033 -0.0311 -0.0009  0.6322
17845THY    HP236586   2.160   1.556   7.103 -0.2766 -1.3748 -0.6445
17845THY    HP336587   2.043   1.618   6.987  0.6279 -0.9336 -0.5337
17845THY    HP436588   2.119   1.732   7.087  1.1166 -0.8177  1.3935
17845THY    CP336589   2.244   1.788   6.849 -0.1742 -0.3876 -0.5015
17845THY    HP536590   2.164   1.790   6.775 -3.0302  2.5128  0.2589
17845THY    HP636591   2.342   1.812   6.806 -0.8740 -1.5755  0.2688
17845THY    HP736592   2.212   1.869   6.915 -0.2109 -0.6567 -0.2985
17845THY    CA336593   2.176   1.508   6.749 -0.0904  0.0801  0.4227
17845THY    HA336594   2.087   1.571   6.747 -0.1576 -1.3027  0.3191
17845THY    CA436595   2.195   1.409   6.648  0.5877  0.1476  0.8493
17845THY    HA436596   2.114   1.384   6.581 -0.1209  1.2869  0.0203
17845THY    CA536597   2.301   1.319   6.659 -0.3219  0.4580  0.3620
17845THY    CM136598   2.307   1.192   6.568  0.2106 -0.2010 -0.0789
17845THY    HM136599   2.403   1.138   6.572 -0.3569 -0.4156 -1.1220
17845THY    HM236600   2.295   1.220   6.463 -1.5272 -0.5303 -1.8268
17845THY    HM336601   2.225   1.121   6.585 -0.4346 -0.4687  0.5918
17845THY    CA636602   2.400   1.342   6.757  0.1849  0.1448  0.2182
17845THY    HA636603   2.490   1.281   6.753  0.6855  0.8181  0.8856
17846THY      O36604   6.359   3.193   7.052 -0.3216 -0.1942 -0.5778
17846THY     HO36605   6.333   3.262   6.988  1.4861 -0.0171  0.3132
17846THY    CA136606   6.445   3.252   7.128  0.3231 -0.7100 -0.6682
17846THY    CA236607   6.525   3.180   7.211 -0.0798  0.0678  0.1772
17846THY    CP136608   6.490   3.023   7.235  0.2503 -0.5516  0.4916
17846THY    HP136609   6.430   2.976   7.157  3.0827 -2.2647 -0.5290
17846THY    CP236610   6.398   3.009   7.359 -0.1101  0.7773 -0.1092
17846THY    HP236611   6.456   3.027   7.450  1.5025 -0.1567 -0.4123
17846THY    HP336612   6.358   2.907   7.355 -1.1602 -0.7714  0.3245
17846THY    HP436613   6.315   3.081   7.361 -1.3904 -1.6906 -1.3943
17846THY    CP336614   6.615   2.941   7.253 -0.1367  0.1884  0.7989
17846THY    HP536615   6.637   2.947   7.360 -0.8426  0.2798  2.1147
17846THY    HP636616   6.699   2.976   7.191 -0.8198 -1.2631 -0.0444
17846THY    HP736617   6.592   2.838   7.225 -0.8116 -0.7133  1.1805
17846THY    CA336618   6.626   3.245   7.286  0.7323 -0.4680 -0.5418
17846THY    HA336619   6.686   3.191   7.359 -0.1236  1.1993  0.6889
17846THY    CA436620   6.642   3.382   7.278  0.1320  0.2339 -0.1504
17846THY    HA436621   6.725   3.429   7.330  1.8987 -2.2006 -0.3849
17846THY    CA536622   6.569   3.456   7.181 -0.6417  0.2808  0.0993
17846THY    CM136623   6.613   3.592   7.161 -0.1774 -0.5604 -0.1809
17846THY    HM136624   6.630   3.601   7.053  0.8836 -0.7733 -3.4437
17846THY    HM236625   6.706   3.624   7.208  0.1421 -1.1215 -0.2849
17846THY    HM336626   6.528   3.655   7.190  0.4887 -1.4828  1.1847
17846THY    CA636627   6.471   3.390   7.107  0.4121 -0.2387 -0.9577
17846THY    HA636628   6.420   3.431   7.020 -0.1375 -0.8140 -2.7622
17847THY      O36629   1.374   4.387   6.293 -0.0776 -0.5408  0.1636
17847THY     HO36630   1.398   4.315   6.232 -1.6827 -1.8661  0.6663
17847THY    CA136631   1.477   4.416   6.374  1.0744  0.4008 -0.1525
17847THY    CA236632   1.479   4.526   6.461 -0.3177  0.2818  0.1875
17847THY    CP136633   1.368   4.628   6.469  0.7990 -0.2806  0.2813
17847THY    HP136634   1.295   4.611   6.388 -1.3700  1.7011 -0.3345
17847THY    CP236635   1.406   4.777   6.457 -0.9386 -0.0073  0.0335
17847THY    HP236636   1.478   4.793   6.376  0.9956  1.7495  0.6321
17847THY    HP336637   1.454   4.814   6.548 -0.5616 -0.2146  0.0627
17847THY    HP436638   1.315   4.837   6.445 -0.4455 -0.1105  0.7682
17847THY    CP336639   1.283   4.606   6.595 -0.2448  0.4721 -0.3658
17847THY    HP536640   1.264   4.501   6.618 -1.4496  0.2089 -0.2216
17847THY    HP636641   1.187   4.658   6.603 -0.0380 -0.4222  0.1723
17847THY    HP736642   1.343   4.648   6.676 -0.3514  0.5608 -0.3843
17847THY    CA336643   1.592   4.535   6.553 -0.2786  0.2875 -0.3572
17847THY    HA336644   1.611   4.617   6.622  2.5202 -1.7287  0.8952
17847THY    CA436645   1.687   4.434   6.553 -0.4034 -0.1865 -0.0449
17847THY    HA436646   1.770   4.446   6.623  0.4899 -0.8204 -2.1671
17847THY    CA536647   1.683   4.330   6.467  0.8062  0.2870 -0.5698
17847THY    CM136648   1.790   4.220   6.470  0.0577  0.3579  0.1368
17847THY    HM136649   1.746   4.120   6.469  1.8005  0.5271 -0.6569
17847THY    HM236650   1.844   4.221   6.565 -0.0808  0.4670 -1.1330
17847THY    HM336651   1.865   4.222   6.390 -0.1227  0.1873  1.7865
17847THY    CA636652   1.579   4.321   6.379 -0.6108 -0.3100  0.2458
17847THY    HA636653   1.585   4.233   6.316  0.5674  0.2885 -0.1169
17848THY      O36654   8.663   8.476   6.985  0.4815 -0.0434 -0.1771
17848THY     HO36655   8.755   8.502   6.970  0.0911 -0.1319  1.2157
17848THY    CA136656   8.579   8.579   6.962  0.0441 -0.2297  1.1358
17848THY    CA236657   8.447   8.552   6.921  0.1413  0.3052 -0.4497
17848THY    CP136658   8.392   8.403   6.912 -0.7219 -0.1869  1.1945
17848THY    HP136659   8.424   8.340   6.996 -2.8164 -1.1348 -1.3204
17848THY    CP236660   8.435   8.327   6.787 -0.0075  0.3010 -0.2765
17848THY    HP236661   8.379   8.235   6.768 -0.0262 -1.2794  0.0274
17848THY    HP336662   8.543   8.314   6.794 -0.3125  1.0219 -3.0175
17848THY    HP436663   8.420   8.385   6.695 -0.8419  1.2582  1.0798
17848THY    CP336664   8.237   8.396   6.914  0.0413  0.0800 -0.1747
17848THY    HP536665   8.211   8.290   6.918  0.5410  0.3668 -0.2919
17848THY    HP636666   8.191   8.441   6.826 -1.0433  1.7972  2.3607
17848THY    HP736667   8.203   8.448   7.005 -1.6301 -0.2286 -0.6895
17848THY    CA336668   8.361   8.669   6.900 -0.1119 -0.3583 -0.6287
17848THY    HA336669   8.254   8.660   6.882 -0.7399  2.2871  0.6220
17848THY    CA436670   8.412   8.794   6.913 -0.3942  0.0740  0.4170
17848THY    HA436671   8.337   8.871   6.898 -0.2105 -0.6728  0.4601
17848THY    CA536672   8.544   8.817   6.950  0.9828  0.2615 -0.1882
17848THY    CM136673   8.592   8.964   6.959 -0.1203 -0.4612  0.2855
17848THY    HM136674   8.584   9.012   6.861  0.8013 -1.6550 -1.8260
17848THY    HM236675   8.700   8.962   6.980 -0.3275  0.5787 -0.4115
17848THY    HM336676   8.548   9.032   7.032  2.7515  0.1842  1.5981
17848THY    CA636677   8.626   8.705   6.973 -0.1005 -0.0800  0.6616
17848THY    HA636678   8.731   8.715   6.999 -0.0477 -0.3974  0.9262
17849THY      O36679   9.230   3.987   6.632  0.0158 -0.4488 -0.2976
17849THY     HO36680   9.213   3.902   6.674 -0.0866 -0.1586 -0.1341
17849THY    CA136681   9.173   4.070   6.716  0.9260  0.0526 -0.5321
17849THY    CA236682   9.084   4.169   6.671  0.4478  0.0873 -0.1952
17849THY    CP136683   9.040   4.175   6.526  0.2863 -0.1134  1.3902
17849THY    HP136684   9.046   4.072   6.490  1.1115  0.7081  1.1377
17849THY    CP236685   9.143   4.258   6.454 -0.0973  0.1106 -0.8732
17849THY    HP236686   9.127   4.256   6.345  0.5049 -0.0585  1.0508
17849THY    HP336687   9.244   4.221   6.475  0.6816 -0.8459  0.5944
17849THY    HP436688   9.141   4.357   6.502 -2.3766 -2.3555  0.4235
17849THY    CP336689   8.903   4.232   6.496  0.0202  0.4069  0.2720
17849THY    HP536690   8.913   4.338   6.522 -1.0941  1.5263  0.1366
17849THY    HP636691   8.833   4.196   6.573  1.4630  0.5760 -2.3911
17849THY    HP736692   8.873   4.204   6.394 -0.0703 -0.2307  2.5245
17849THY    CA336693   9.035   4.263   6.765  0.1279  0.5049  0.4582
17849THY    HA336694   8.963   4.339   6.736  0.9221  0.2677  1.1383
17849THY    CA436695   9.066   4.241   6.903 -0.2574  0.3182 -0.1837
17849THY    HA436696   9.017   4.304   6.977 -2.0079 -0.8926 -0.0585
17849THY    CA536697   9.162   4.141   6.943  0.7757  0.1033 -0.6236
17849THY    CM136698   9.211   4.141   7.084  0.0330  0.9120 -0.3891
17849THY    HM136699   9.134   4.175   7.154  1.8727  1.5470  2.8681
17849THY    HM236700   9.289   4.217   7.090 -0.2391 -0.3106  0.0151
17849THY    HM336701   9.245   4.038   7.101 -0.4288 -0.0875 -0.7193
17849THY    CA636702   9.202   4.045   6.852  0.5070 -0.5738 -0.0362
17849THY    HA636703   9.265   3.962   6.882 -0.3873  2.3511  0.2138
17850THY      O36704   8.646   9.268   5.027 -0.4134  0.9617  0.2962
17850THY     HO36705   8.690   9.252   5.112  0.1886  0.8123  1.0986
17850THY    CA136706   8.737   9.268   4.933  0.4509 -0.3983  0.3306
17850THY    CA236707   8.717   9.221   4.804 -0.1809  0.0492 -0.0348
17850THY    CP136708   8.576   9.168   4.767  0.2922  0.0062 -0.3899
17850THY    HP136709   8.526   9.130   4.856  1.0586  0.6482  0.0809
17850THY    CP236710   8.579   9.048   4.671  0.2249 -0.0040 -0.0564
17850THY    HP236711   8.655   8.974   4.697 -1.5557 -1.5030 -2.5263
17850THY    HP336712   8.589   9.073   4.565  4.9577  0.3871  0.5360
17850THY    HP436713   8.485   8.992   4.677  0.7140  0.5266 -0.8339
17850THY    CP336714   8.477   9.275   4.716 -0.5379  0.3613  0.1825
17850THY    HP536715   8.462   9.332   4.809  0.1154  0.3711  0.3517
17850THY    HP636716   8.379   9.236   4.688 -1.1591  1.4071  0.9307
17850THY    HP736717   8.529   9.335   4.640  0.9537  1.4553  0.3480
17850THY    CA336718   8.827   9.240   4.712 -0.3743  0.4247 -0.0657
17850THY    HA336719   8.825   9.216   4.606 -1.2313 -0.1213  2.2463
17850THY    CA436720   8.946   9.300   4.752  0.3551 -0.3533 -0.0054
17850THY    HA436721   9.030   9.316   4.686  2.0290  1.4730 -0.8715
17850THY    CA536722   8.964   9.336   4.885  0.2451 -0.2637  0.0643
17850THY    CM136723   9.097   9.378   4.936  0.8271 -0.0346  0.0283
17850THY    HM136724   9.145   9.452   4.871  0.4093 -1.6105 -1.0053
17850THY    HM236725   9.158   9.288   4.953 -1.4180  0.9649 -1.3869
17850THY    HM336726   9.082   9.417   5.036 -1.1755  0.7424 -2.4305
17850THY    CA636727   8.853   9.322   4.974 -0.3258  0.6418 -1.6215
17850THY    HA636728   8.867   9.334   5.081  0.4643  0.4128 -0.3783
17851THY      O36729   8.356   1.017   3.288  0.3192 -0.1085  0.0652
17851THY     HO36730   8.300   0.940   3.307  1.0979  0.5417 -0.3591
17851THY    CA136731   8.369   1.086   3.408 -0.6626  0.3136 -0.0952
17851THY    CA236732   8.473   1.175   3.428  0.5065  0.8036 -0.3565
17851THY    CP136733   8.596   1.164   3.340 -0.6595  0.1088  0.2114
17851THY    HP136734   8.585   1.084   3.265 -0.4160 -0.6187  0.8408
17851THY    CP236735   8.701   1.097   3.426  0.2002  0.2857 -0.3567
17851THY    HP236736   8.719   1.165   3.510 -1.7947  0.1977  0.3531
17851THY    HP336737   8.783   1.103   3.354 -0.8385 -0.8119  1.4879
17851THY    HP436738   8.675   0.995   3.458 -2.0389 -0.6864 -0.1479
17851THY    CP336739   8.636   1.291   3.260 -0.5858 -0.7459  0.0811
17851THY    HP536740   8.725   1.274   3.199  1.5133  1.6599  1.7129
17851THY    HP636741   8.653   1.376   3.328  0.9448 -0.4797 -0.4084
17851THY    HP736742   8.550   1.318   3.197 -1.3076  0.5270  0.8685
17851THY    CA336743   8.456   1.278   3.531  0.0699  1.0462  0.5055
17851THY    HA336744   8.539   1.341   3.561  1.6374  0.8887 -1.3763
17851THY    CA436745   8.333   1.284   3.593 -0.5827 -0.5870 -0.2030
17851THY    HA436746   8.322   1.359   3.671  2.9367  0.1690 -0.2865
17851THY    CA536747   8.238   1.188   3.577 -0.2429 -0.6047  0.3239
17851THY    CM136748   8.118   1.197   3.675 -0.6328  0.0960  0.3321
17851THY    HM136749   8.073   1.101   3.700 -0.2158  2.1331  0.6185
17851THY    HM236750   8.049   1.263   3.620 -0.6319 -0.0551  0.2085
17851THY    HM336751   8.143   1.235   3.774 -0.9882  0.1520  0.4275
17851THY    CA636752   8.252   1.091   3.483  0.6808 -0.3351 -0.7409
17851THY    HA636753   8.172   1.024   3.454 -0.5907  2.4259 -0.5362
17852THY      O36754   6.467   5.774   5.051  0.8334  0.0369  0.3270
17852THY     HO36755   6.401   5.813   4.990 -0.5764  0.4356 -1.3259
17852THY    CA136756   6.401   5.668   5.104 -0.3285 -0.3434  0.3473
17852THY    CA236757   6.465   5.585   5.203  0.8751 -0.2290  0.0239
17852THY    CP136758   6.593   5.638   5.271 -0.5527 -0.1122 -0.3236
17852THY    HP136759   6.605   5.745   5.253 -2.1626  1.4317  0.1569
17852THY    CP236760   6.714   5.560   5.216  0.5240  0.3338 -0.8305
17852THY    HP236761   6.714   5.563   5.106  1.7726  0.3247 -0.3077
17852THY    HP336762   6.713   5.452   5.233  0.0955 -3.2476 -1.5193
17852THY    HP436763   6.805   5.615   5.242 -0.3902 -1.0733  1.4998
17852THY    CP336764   6.599   5.622   5.420  0.0351  0.0191  0.6709
17852THY    HP536765   6.524   5.688   5.464  0.8844  0.0851  1.6229
17852THY    HP636766   6.695   5.648   5.467 -0.5680  2.6135 -1.3512
17852THY    HP736767   6.593   5.521   5.463  0.7283  1.7063  1.3113
17852THY    CA336768   6.399   5.461   5.239 -0.5802  0.3469 -0.6939
17852THY    HA336769   6.440   5.388   5.309 -2.7414 -0.9084 -3.2996
17852THY    CA436770   6.299   5.418   5.152  0.1187 -0.0024  0.0589
17852THY    HA436771   6.259   5.317   5.159 -1.7586 -2.7222  0.5174
17852THY    CA536772   6.237   5.498   5.054  0.2634 -0.6042  0.0457
17852THY    CM136773   6.128   5.442   4.968 -0.3288 -0.4702 -0.0791
17852THY    HM136774   6.127   5.332   4.976 -1.2314 -0.5188 -0.0830
17852THY    HM236775   6.148   5.461   4.862  1.4618 -0.4192 -1.4687
17852THY    HM336776   6.027   5.480   4.989  0.1337 -1.7938  2.0203
17852THY    CA636777   6.285   5.627   5.033 -0.9786  0.3182  0.8292
17852THY    HA636778   6.238   5.682   4.952 -3.6442 -0.9188 -2.9152
17853THY      O36779   8.125   7.751   2.545 -0.0124  0.1182  0.0198
17853THY     HO36780   8.084   7.812   2.481 -0.3620  1.6941  1.4866
17853THY    CA136781   8.165   7.634   2.495 -0.1039  0.2538 -0.1903
17853THY    CA236782   8.189   7.524   2.588  0.0442 -0.1908 -0.3322
17853THY    CP136783   8.173   7.553   2.742 -0.2629 -0.1362 -0.6721
17853THY    HP136784   8.190   7.660   2.757  0.6281 -2.0713 -0.4893
17853THY    CP236785   8.280   7.485   2.825  0.0435  0.2654  0.7235
17853THY    HP236786   8.383   7.510   2.795 -0.5741 -2.4862  0.2471
17853THY    HP336787   8.260   7.379   2.809 -1.9185 -0.9647  1.2289
17853THY    HP436788   8.264   7.506   2.932 -1.4159 -0.4039  3.5279
17853THY    CP336789   8.032   7.529   2.786 -0.0034  0.8146  0.1442
17853THY    HP536790   7.952   7.575   2.727 -0.5033  0.3415 -1.2541
17853THY    HP636791   8.014   7.583   2.880 -2.5570  0.5000 -0.0272
17853THY    HP736792   7.996   7.425   2.792  0.0219 -3.1543 -0.2563
17853THY    CA336793   8.217   7.394   2.542 -0.6800 -0.1470  0.1245
17853THY    HA336794   8.225   7.313   2.614  0.6714 -0.7477 -0.3029
17853THY    CA436795   8.242   7.376   2.407  0.4519 -0.3734 -0.5059
17853THY    HA436796   8.272   7.279   2.367  1.4315  0.0269 -0.3816
17853THY    CA536797   8.225   7.483   2.318 -0.7239 -0.4549  0.0864
17853THY    CM136798   8.238   7.448   2.176  0.6852  0.5237 -0.5978
17853THY    HM136799   8.335   7.403   2.153  0.9247 -1.3821  0.7721
17853THY    HM236800   8.228   7.543   2.122  0.3946 -0.2110 -1.0322
17853THY    HM336801   8.162   7.376   2.142 -0.9096  1.3708  0.6208
17853THY    CA636802   8.188   7.614   2.359 -0.6052 -0.0808 -0.1112
17853THY    HA636803   8.175   7.688   2.281 -0.3904 -1.0303 -1.0392
17854THY      O36804   2.543   2.884   5.874 -0.1113 -0.2626  0.5415
17854THY     HO36805   2.623   2.839   5.841  0.1142  0.3879  0.4499
17854THY    CA136806   2.487   2.947   5.771 -0.5278  0.2015 -0.2945
17854THY    CA236807   2.352   2.981   5.774 -0.2919  0.4564 -0.2598
17854THY    CP136808   2.264   2.961   5.906 -0.2450 -0.1325 -0.1174
17854THY    HP136809   2.314   2.882   5.962 -0.4823 -0.3925 -0.4539
17854THY    CP236810   2.116   2.921   5.889  0.0803 -0.0805 -0.3121
17854THY    HP236811   2.099   2.884   5.788 -0.2397 -0.8804  1.9191
17854THY    HP336812   2.046   3.000   5.917  0.4318 -1.1649  0.3934
17854THY    HP436813   2.095   2.843   5.964  0.5488 -0.4889 -0.8381
17854THY    CP336814   2.266   3.086   5.986  0.3159 -0.3248 -0.3161
17854THY    HP536815   2.225   3.067   6.086 -0.1399 -0.1362  1.4740
17854THY    HP636816   2.224   3.177   5.942  1.0174  0.5891  0.4698
17854THY    HP736817   2.371   3.114   6.003  0.4309 -1.6190  0.1056
17854THY    CA336818   2.295   3.064   5.674 -0.4735  0.1062 -0.9690
17854THY    HA336819   2.193   3.100   5.681 -0.7712 -3.0586 -0.9791
17854THY    CA436820   2.381   3.119   5.570 -0.6079 -0.1581  0.4862
17854THY    HA436821   2.339   3.186   5.496 -2.2447  1.0307  0.8570
17854THY    CA536822   2.512   3.075   5.560  0.1208  0.7762 -0.1827
17854THY    CM136823   2.585   3.123   5.440 -0.0084  0.2338  0.2491
17854THY    HM136824   2.546   3.085   5.344  0.3834 -0.6958  2.0411
17854THY    HM236825   2.685   3.079   5.447  0.1982  3.5769  0.9752
17854THY    HM336826   2.593   3.232   5.429 -1.0412 -0.4843  0.2719
17854THY    CA636827   2.566   2.998   5.662  0.0448 -0.6738  0.4764
17854THY    HA636828   2.670   2.968   5.649 -0.4092  0.8572 -2.0768
17855THY      O36829   8.677   7.129   4.122 -0.3940  0.1209 -0.5372
17855THY     HO36830   8.673   7.033   4.139 -0.9486  0.3914 -0.4692
17855THY    CA136831   8.559   7.157   4.054 -0.1694 -0.0101 -0.6886
17855THY    CA236832   8.534   7.295   4.027 -0.8726  0.7834 -0.6902
17855THY    CP136833   8.621   7.418   4.082  1.1084 -0.4187 -0.0801
17855THY    HP136834   8.708   7.376   4.135 -1.0090  1.9311 -1.7512
17855THY    CP236835   8.534   7.490   4.197 -0.6304 -0.2770  0.0134
17855THY    HP236836   8.491   7.416   4.265  2.6949  0.7543 -1.1580
17855THY    HP336837   8.448   7.545   4.157 -0.8937  0.9644  0.5406
17855THY    HP436838   8.594   7.567   4.249  0.9870 -1.6469 -0.2480
17855THY    CP336839   8.651   7.522   3.967 -0.1981  0.3774  0.1967
17855THY    HP536840   8.673   7.623   4.003  0.3024  3.3161 -0.8639
17855THY    HP636841   8.559   7.547   3.912 -1.0352  1.1236 -1.1463
17855THY    HP736842   8.739   7.489   3.909 -0.4663  1.1659 -2.0588
17855THY    CA336843   8.409   7.325   3.963  0.5533 -0.0962 -0.0687
17855THY    HA336844   8.377   7.427   3.949 -2.2327  2.6295 -0.4218
17855THY    CA436845   8.327   7.215   3.936 -0.1030  0.0623  0.6160
17855THY    HA436846   8.225   7.233   3.902  0.1246  0.4879  3.0802
17855THY    CA536847   8.359   7.085   3.958  0.5619 -0.4546  0.8172
17855THY    CM136848   8.263   6.969   3.931  0.3011  0.1327 -0.7465
17855THY    HM136849   8.297   6.919   3.839  4.5889  1.8129 -1.4455
17855THY    HM236850   8.162   7.007   3.915  0.3043  1.5979 -0.0781
17855THY    HM336851   8.275   6.895   4.011  1.6376  0.3994 -0.2718
17855THY    CA636852   8.477   7.050   4.023 -0.0509  0.2990  0.2454
17855THY    HA636853   8.511   6.947   4.033 -1.4689  0.0390 -0.2625
17856THY      O36854   2.140   1.092   2.930  0.0937 -0.6150 -0.0236
17856THY     HO36855   2.129   1.182   2.895  1.1755 -1.0290 -0.0270
17856THY    CA136856   2.268   1.068   2.961 -0.4923 -0.2623  0.8637
17856THY    CA236857   2.312   0.946   2.996  0.5247 -0.1167 -0.1368
17856THY    CP136858   2.205   0.840   3.005  0.1047 -0.1155  0.1369
17856THY    HP136859   2.135   0.853   2.923 -0.5937  0.3650 -0.5593
17856THY    CP236860   2.131   0.857   3.135  0.5807  0.5439  0.2204
17856THY    HP236861   2.053   0.782   3.151 -0.6510 -2.4117  0.7174
17856THY    HP336862   2.080   0.954   3.127  4.9420 -1.8670  2.6445
17856THY    HP436863   2.208   0.863   3.213  1.5873 -0.3062 -1.2263
17856THY    CP336864   2.249   0.698   2.992 -0.5237 -0.3114  0.1474
17856THY    HP536865   2.328   0.682   2.918  0.3713  0.8851 -1.1508
17856THY    HP636866   2.169   0.625   2.970  0.5229  0.3003 -1.2248
17856THY    HP736867   2.293   0.675   3.089  1.7875 -0.9766  1.4841
17856THY    CA336868   2.448   0.927   3.030 -0.0555  0.5094 -0.0493
17856THY    HA336869   2.478   0.828   3.062 -1.9357 -0.1357 -0.8659
17856THY    CA436870   2.544   1.027   3.009 -1.0449 -0.1331 -0.1546
17856THY    HA436871   2.650   1.020   3.032 -0.1331 -2.5935  3.0654
17856THY    CA536872   2.496   1.152   2.964  0.4085 -0.3914 -0.3729
17856THY    CM136873   2.593   1.258   2.936  0.4991  0.1526  0.5409
17856THY    HM136874   2.545   1.350   2.969 -0.5192  1.0363 -0.2815
17856THY    HM236875   2.620   1.264   2.830 -2.4064 -0.6372  0.7056
17856THY    HM336876   2.685   1.248   2.996  0.9578 -0.5413  0.5208
17856THY    CA636877   2.361   1.174   2.942 -0.1353 -0.0999  0.2784
17856THY    HA636878   2.329   1.272   2.906 -1.4038  1.6336  0.5448
17857THY      O36879   1.917   0.687   5.025 -1.0718 -0.6520  0.1357
17857THY     HO36880   1.962   0.609   5.062  0.4292  1.0228  1.6942
17857THY    CA136881   1.937   0.771   5.120  0.5269  0.1686  0.3865
17857THY    CA236882   2.016   0.890   5.114  0.0299  0.3716 -0.7211
17857THY    CP136883   2.046   0.957   4.980  0.4721 -0.4136 -0.1612
17857THY    HP136884   2.008   0.898   4.896 -0.4085  0.5969 -1.0700
17857THY    CP236885   2.188   0.970   4.950  0.0555 -0.3369  0.2066
17857THY    HP236886   2.198   1.012   4.849  0.3898  0.4576  2.1911
17857THY    HP336887   2.239   0.874   4.937 -0.4675 -0.1487 -0.0973
17857THY    HP436888   2.237   1.036   5.023  1.1722  0.6035 -1.5837
17857THY    CP336889   1.973   1.092   4.972  0.2620  0.0119  0.1099
17857THY    HP536890   1.980   1.132   4.870 -2.4656 -0.2131  0.2204
17857THY    HP636891   2.013   1.163   5.045  0.3309 -0.2865  0.3794
17857THY    HP736892   1.866   1.076   4.990 -0.0797 -1.7446  0.2373
17857THY    CA336893   2.036   0.951   5.236 -0.1702 -0.4625 -0.8060
17857THY    HA336894   2.095   1.042   5.239 -0.4567 -0.0940 -0.6257
17857THY    CA436895   1.996   0.900   5.356 -0.2962 -0.1259 -0.2530
17857THY    HA436896   2.020   0.950   5.449  0.7691 -0.4873 -0.0834
17857THY    CA536897   1.912   0.787   5.352 -0.7882  0.5901  0.5781
17857THY    CM136898   1.860   0.734   5.480 -0.5841  0.0838  0.4097
17857THY    HM136899   1.771   0.784   5.521 -0.2849  0.1230  0.9249
17857THY    HM236900   1.937   0.746   5.557 -0.7096  0.3587 -0.4926
17857THY    HM336901   1.818   0.633   5.477 -0.9992  0.9258  0.5463
17857THY    CA636902   1.890   0.721   5.237  0.2307 -0.0521 -0.0192
17857THY    HA636903   1.820   0.638   5.234  0.7018 -2.3547 -0.3978
17858THY      O36904   7.546   3.383   3.134  0.4111  0.4967 -0.7509
17858THY     HO36905   7.548   3.377   3.037 -1.7374  0.2823  0.7338
17858THY    CA136906   7.558   3.251   3.167 -0.1274 -0.4360  0.3002
17858THY    CA236907   7.633   3.208   3.282 -0.1794 -0.2428 -0.0424
17858THY    CP136908   7.686   3.308   3.390  0.0170  0.5120 -0.0304
17858THY    HP136909   7.713   3.400   3.338  1.8921  1.6019  0.0764
17858THY    CP236910   7.816   3.258   3.452  0.1996 -0.4249 -0.2755
17858THY    HP236911   7.858   3.320   3.532  0.0981 -0.5482 -0.0484
17858THY    HP336912   7.901   3.247   3.383  0.9717  0.5799 -0.7935
17858THY    HP436913   7.782   3.170   3.508 -0.1924 -1.2794 -0.6778
17858THY    CP336914   7.575   3.332   3.493 -0.2093 -0.0717 -0.3944
17858THY    HP536915   7.518   3.246   3.530  0.2627  2.0245  0.1395
17858THY    HP636916   7.493   3.390   3.448  1.2958 -0.4351  1.5848
17858THY    HP736917   7.624   3.394   3.569 -1.0456  0.0802  0.1029
17858THY    CA336918   7.646   3.071   3.305 -0.5473 -0.3512  0.7085
17858THY    HA336919   7.704   3.029   3.386  1.4527 -1.1939  1.7158
17858THY    CA436920   7.584   2.979   3.223  0.6009  0.2342  0.1240
17858THY    HA436921   7.599   2.872   3.232 -1.6352  0.1575 -0.2391
17858THY    CA536922   7.511   3.023   3.116  0.8567 -0.0119 -0.0672
17858THY    CM136923   7.452   2.919   3.028 -0.1318  0.2262 -0.1850
17858THY    HM136924   7.356   2.879   3.062 -2.1869 -2.3553  2.1782
17858THY    HM236925   7.518   2.833   3.008 -2.0309  0.1431 -1.6775
17858THY    HM336926   7.419   2.967   2.935 -0.5172  0.9514  1.0039
17858THY    CA636927   7.499   3.157   3.085 -0.1183 -0.8581  0.2593
17858THY    HA636928   7.437   3.174   2.998 -0.1604 -1.1086 -1.0839
17859THY      O36929   1.695   5.641   2.603 -0.1370 -0.2816  0.3629
17859THY     HO36930   1.614   5.672   2.559 -0.4407 -1.0150 -1.3285
17859THY    CA136931   1.695   5.694   2.730  0.7686 -0.1483  0.2555
17859THY    CA236932   1.808   5.707   2.811  0.2099 -0.0061  0.1246
17859THY    CP136933   1.940   5.636   2.767 -0.4799  0.0247 -0.1396
17859THY    HP136934   1.899   5.548   2.716 -1.1082 -2.1065  1.3128
17859THY    CP236935   2.034   5.592   2.878  0.4467 -0.3598 -0.2185
17859THY    HP236936   2.123   5.542   2.838  1.7933 -0.7988  2.3663
17859THY    HP336937   1.978   5.531   2.950  2.2202  1.8401  0.6034
17859THY    HP436938   2.069   5.674   2.941 -0.3400 -2.2349  1.6542
17859THY    CP336939   2.024   5.718   2.672  0.5968 -0.0998 -0.4719
17859THY    HP536940   2.108   5.654   2.642 -1.1257 -4.3127 -1.1201
17859THY    HP636941   2.053   5.807   2.728  2.1865  0.5781 -1.3646
17859THY    HP736942   1.973   5.748   2.580 -1.2625  1.3695  1.0904
17859THY    CA336943   1.807   5.765   2.937  0.4809 -0.0330 -1.0945
17859THY    HA336944   1.893   5.784   3.001  0.2191 -0.7895  4.5385
17859THY    CA436945   1.689   5.828   2.983 -0.1130  0.5828 -0.8243
17859THY    HA436946   1.680   5.879   3.078 -1.3975  0.8596 -1.5231
17859THY    CA536947   1.576   5.823   2.894  0.6574  0.7672 -0.2043
17859THY    CM136948   1.447   5.883   2.943 -0.5892  0.4330  0.0209
17859THY    HM136949   1.444   5.888   3.053  1.8301  0.5064  1.8191
17859THY    HM236950   1.358   5.831   2.905 -0.6397 -0.5845  0.8276
17859THY    HM336951   1.449   5.988   2.911 -3.5765 -0.8615 -0.2198
17859THY    CA636952   1.579   5.754   2.773  0.3240 -0.1855  0.5822
17859THY    HA636953   1.488   5.733   2.717  0.8722 -0.6022 -0.7855
17860THY      O36954   1.412   1.645   6.555  0.2098 -0.5464  0.0552
17860THY     HO36955   1.497   1.643   6.602 -0.1219  0.0590  0.0308
17860THY    CA136956   1.372   1.769   6.587 -0.1847  0.5552 -0.4893
17860THY    CA236957   1.272   1.840   6.533  0.2307  0.3829  0.1948
17860THY    CP136958   1.203   1.785   6.402 -0.0775  0.5061 -0.4689
17860THY    HP136959   1.221   1.677   6.410 -1.0797  0.8478 -0.6244
17860THY    CP236960   1.260   1.860   6.276 -0.1277  0.1129  0.0972
17860THY    HP236961   1.369   1.855   6.272 -0.1611  0.5613 -1.2237
17860THY    HP336962   1.231   1.963   6.250  1.3883 -2.1882 -0.0069
17860THY    HP436963   1.222   1.798   6.194 -0.3980  0.7732 -0.6280
17860THY    CP336964   1.048   1.801   6.398 -0.8672 -0.3039 -0.2539
17860THY    HP536965   1.006   1.777   6.299 -2.0651 -0.9780  3.8431
17860THY    HP636966   1.013   1.903   6.416 -1.4310 -0.2523 -0.4481
17860THY    HP736967   1.014   1.725   6.470 -1.6898 -0.5177 -0.0972
17860THY    CA336968   1.238   1.963   6.575  0.1928  0.2052 -0.6367
17860THY    HA336969   1.154   2.018   6.532 -2.2938  1.1476 -3.3922
17860THY    CA436970   1.309   2.023   6.679 -0.0634  0.0733 -0.3779
17860THY    HA436971   1.293   2.126   6.708 -0.0606 -1.3710  0.0530
17860THY    CA536972   1.410   1.952   6.743  0.6121 -0.4617  0.7218
17860THY    CM136973   1.470   1.997   6.864  0.1458 -0.4672  0.0446
17860THY    HM136974   1.569   1.955   6.883  1.5420 -1.4360  2.6119
17860THY    HM236975   1.416   1.978   6.957  1.1858  0.4257  1.2724
17860THY    HM336976   1.491   2.105   6.860  0.0115 -2.9970  0.0431
17860THY    CA636977   1.435   1.825   6.694 -0.4036  0.0482  0.6735
17860THY    HA636978   1.507   1.772   6.755  0.1930 -0.4757  0.8756
17861THY      O36979   4.786   1.159   6.588  0.2171  0.3826 -0.1830
17861THY     HO36980   4.769   1.170   6.493 -3.3296  0.7284 -1.5637
17861THY    CA136981   4.925   1.173   6.596 -0.2055  0.1412  0.0048
17861THY    CA236982   5.001   1.133   6.696  0.0185  0.1679  0.2569
17861THY    CP136983   4.939   1.043   6.808  0.2414 -0.3695 -0.3990
17861THY    HP136984   4.837   1.016   6.777  0.1160 -0.3356  0.0325
17861THY    CP236985   4.931   1.119   6.935  0.1262 -0.0610  0.2463
17861THY    HP236986   5.030   1.154   6.969  0.3840  0.4687 -0.9263
17861THY    HP336987   4.895   1.064   7.023  0.1553 -0.6225 -0.7041
17861THY    HP436988   4.858   1.200   6.928  0.3331 -2.8142  0.2976
17861THY    CP336989   5.006   0.909   6.811 -0.6121 -0.3796  0.0398
17861THY    HP536990   4.977   0.844   6.728  0.5869 -1.0606  0.3262
17861THY    HP636991   4.979   0.851   6.900  1.7208  0.6405  0.3796
17861THY    HP736992   5.116   0.917   6.810 -0.3991  2.1232 -1.5480
17861THY    CA336993   5.130   1.183   6.714 -0.3650  0.3347 -0.2703
17861THY    HA336994   5.183   1.155   6.804 -0.2586  0.0387 -1.0460
17861THY    CA436995   5.191   1.248   6.608 -0.4386 -0.0764 -0.6715
17861THY    HA436996   5.297   1.268   6.618 -0.1018 -1.5935 -1.5477
17861THY    CA536997   5.118   1.280   6.496  0.3111 -0.1629  0.6817
17861THY    CM136998   5.183   1.346   6.377  0.4035  0.3332  0.3366
17861THY    HM136999   5.292   1.354   6.374  0.4235  1.9186  1.0251
17861THY    HM237000   5.141   1.446   6.359  0.3909 -0.6255  0.1647
17861THY    HM337001   5.160   1.292   6.284 -0.6595  1.1286 -0.6262
17861THY    CA637002   4.985   1.241   6.488 -0.0383 -0.6262 -0.3494
17861THY    HA637003   4.926   1.278   6.404  2.6186 -2.7467 -0.5469
17862THY      O37004   0.369   4.906   2.965  0.5174  0.3615 -0.0517
17862THY     HO37005   0.334   4.860   2.887 -0.7264  1.4256 -0.9496
17862THY    CA137006   0.498   4.930   2.935 -0.0724  0.4451  0.7808
17862THY    CA237007   0.586   5.004   3.025  0.0347 -0.0934 -0.1923
17862THY    CP137008   0.526   5.074   3.147 -0.7652 -0.3342  0.8699
17862THY    HP137009   0.430   5.030   3.176  0.5493  1.8019 -0.8103
17862THY    CP237010   0.499   5.226   3.101 -0.4365 -0.3854  0.8017
17862THY    HP237011   0.423   5.236   3.023  0.1361 -1.1966 -0.8063
17862THY    HP337012   0.594   5.262   3.061  0.9615  0.8064 -1.3289
17862THY    HP437013   0.466   5.295   3.180  0.8969 -0.5597  1.6737
17862THY    CP337014   0.612   5.079   3.274  0.2706  0.2006 -0.2487
17862THY    HP537015   0.707   5.133   3.266 -1.0750 -0.8592  2.1444
17862THY    HP637016   0.624   4.973   3.300 -1.9007 -0.7050 -0.7830
17862THY    HP737017   0.556   5.131   3.353 -0.3780 -1.3371  1.4830
17862THY    CA337018   0.726   5.023   2.994  0.0747 -0.0439  0.4560
17862THY    HA337019   0.791   5.068   3.068 -0.3971  1.4868 -1.2557
17862THY    CA437020   0.772   4.953   2.881  0.3682  0.4232  0.0734
17862THY    HA437021   0.875   4.963   2.849  0.6459  0.4588 -2.0729
17862THY    CA537022   0.687   4.883   2.795 -0.5229 -0.0857 -0.0001
17862THY    CM137023   0.733   4.817   2.661  0.1115 -0.0303 -0.7226
17862THY    HM137024   0.824   4.757   2.673  0.2747 -0.6425 -0.6047
17862THY    HM237025   0.759   4.905   2.600  0.7166  0.4650 -0.5494
17862THY    HM337026   0.651   4.764   2.612 -2.7918  1.3382  2.1220
17862THY    CA637027   0.551   4.864   2.830 -0.3802 -0.6842  0.5245
17862THY    HA637028   0.495   4.783   2.785  0.6130  2.6459 -2.2404
17863THY      O37029   3.524   2.436   5.600 -0.2575 -0.3438 -0.2123
17863THY     HO37030   3.552   2.363   5.543 -0.9117  1.0587 -1.6063
17863THY    CA137031   3.548   2.551   5.535  0.5749  0.0998  0.1979
17863THY    CA237032   3.509   2.674   5.593 -0.1708  0.7222 -0.1587
17863THY    CP137033   3.441   2.673   5.729  0.6349 -0.7257 -0.4938
17863THY    HP137034   3.462   2.576   5.775 -2.1371 -0.7477 -1.2011
17863THY    CP237035   3.291   2.704   5.732 -0.7656 -0.2226  0.4057
17863THY    HP237036   3.252   2.694   5.835 -0.1340  0.0227  0.4087
17863THY    HP337037   3.230   2.630   5.679 -1.3257  2.8812 -1.5702
17863THY    HP437038   3.281   2.805   5.693  1.5542  1.2702  1.3041
17863THY    CP337039   3.512   2.778   5.821 -0.3108  0.0105  0.0830
17863THY    HP537040   3.621   2.762   5.814 -0.1645  2.0004 -0.0202
17863THY    HP637041   3.492   2.765   5.928 -0.4863  0.1519  1.3992
17863THY    HP737042   3.498   2.884   5.800 -0.2716  0.4752  0.1782
17863THY    CA337043   3.522   2.789   5.517  0.4106  0.1723 -0.1896
17863THY    HA337044   3.489   2.886   5.553 -1.0503 -2.0171  0.1934
17863THY    CA437045   3.574   2.780   5.387 -0.1752  0.3411 -0.2309
17863THY    HA437046   3.589   2.872   5.331  0.1721 -0.2143 -0.6223
17863THY    CA537047   3.624   2.658   5.332 -0.4553  0.5285 -0.0434
17863THY    CM137048   3.681   2.654   5.199  0.2013 -0.3411  0.1953
17863THY    HM137049   3.778   2.603   5.195 -0.2022 -3.5405 -0.5474
17863THY    HM237050   3.695   2.754   5.156 -1.9765 -0.3906  0.5311
17863THY    HM337051   3.617   2.598   5.130  1.0524 -2.4136  1.6468
17863THY    CA637052   3.602   2.543   5.405  0.1243 -1.3357 -0.0377
17863THY    HA637053   3.616   2.446   5.358 -0.9753 -1.4932 -0.1317
17864THY      O37054   5.673   0.622   6.480  0.1840 -0.0558 -0.5675
17864THY     HO37055   5.691   0.702   6.428 -0.6293 -0.7898 -0.8393
17864THY    CA137056   5.546   0.648   6.519 -0.3552 -0.2572  0.3075
17864THY    CA237057   5.477   0.552   6.599 -0.3775  0.1610  0.2007
17864THY    CP137058   5.546   0.417   6.633  0.2706  1.1845 -0.0036
17864THY    HP137059   5.594   0.387   6.539 -1.2045  0.6976 -0.9422
17864THY    CP237060   5.447   0.308   6.666 -0.4252 -0.0043 -0.3267
17864THY    HP237061   5.362   0.301   6.598 -0.0833 -0.3836 -0.9272
17864THY    HP337062   5.401   0.319   6.765  0.9061  0.6184 -0.1928
17864THY    HP437063   5.498   0.211   6.671  0.3411  0.5396  0.0903
17864THY    CP337064   5.649   0.440   6.746 -1.0170 -0.6437  0.0413
17864THY    HP537065   5.604   0.476   6.839  1.8264  0.7240  0.3439
17864THY    HP637066   5.734   0.506   6.724  0.1492 -0.4573 -1.3444
17864THY    HP737067   5.703   0.350   6.777  0.0295  0.0707  0.8908
17864THY    CA337068   5.346   0.575   6.639  0.0119  0.0553 -0.4068
17864THY    HA337069   5.285   0.507   6.697  1.0707  1.6070 -0.0826
17864THY    CA437070   5.292   0.702   6.615  0.3528 -0.1904 -0.4442
17864THY    HA437071   5.198   0.729   6.662  1.4957  0.8705  2.0334
17864THY    CA537072   5.357   0.786   6.528  0.2575 -0.2325 -0.3579
17864THY    CM137073   5.287   0.906   6.482  0.9096  0.5431  0.1436
17864THY    HM137074   5.302   0.920   6.375  0.7277  0.7396  2.1086
17864THY    HM237075   5.326   0.990   6.542 -1.7592  0.3792  1.6114
17864THY    HM337076   5.181   0.900   6.509  0.7869  0.3429  1.1510
17864THY    CA637077   5.487   0.760   6.480 -0.3359 -0.0977 -0.2099
17864THY    HA637078   5.536   0.840   6.425  0.2398  0.9212  0.1577
17865THY      O37079   4.819   2.388   3.998  0.1874  0.1145 -0.4280
17865THY     HO37080   4.804   2.443   4.077 -1.8267  1.0615 -2.2230
17865THY    CA137081   4.770   2.264   4.023 -0.0077  0.0632 -0.0515
17865THY    CA237082   4.734   2.165   3.929 -0.4147 -0.1755 -0.4224
17865THY    CP137083   4.738   2.209   3.783 -0.4907  0.0408  0.0289
17865THY    HP137084   4.821   2.274   3.755 -0.5648  0.3313  0.2496
17865THY    CP237085   4.616   2.302   3.749 -0.5237 -0.0135 -0.2697
17865THY    HP237086   4.626   2.397   3.803  0.3184 -0.6844  0.0419
17865THY    HP337087   4.528   2.262   3.799 -0.4753  0.6251  0.3873
17865THY    HP437088   4.599   2.332   3.645  1.3011 -0.1604  0.3910
17865THY    CP337089   4.748   2.095   3.678 -0.4655 -0.4654 -0.7101
17865THY    HP537090   4.759   2.144   3.581  1.5857 -1.9211 -3.7335
17865THY    HP637091   4.657   2.034   3.684  0.0887  0.9866 -1.4256
17865THY    HP737092   4.836   2.035   3.704 -0.4546  0.5586 -0.2584
17865THY    CA337093   4.700   2.036   3.970  0.1916 -0.4221  0.0223
17865THY    HA337094   4.674   1.963   3.894  2.2360 -1.0894 -0.0690
17865THY    CA437095   4.687   2.003   4.106  0.6017  0.3348  0.2139
17865THY    HA437096   4.648   1.904   4.129  1.8790 -1.5921 -0.7986
17865THY    CA537097   4.721   2.094   4.203 -0.9938  0.0705 -0.0234
17865THY    CM137098   4.699   2.062   4.342 -0.1403  0.1071  0.1553
17865THY    HM137099   4.670   1.958   4.360  2.6846  0.6308 -0.6269
17865THY    HM237100   4.619   2.132   4.370 -1.6479 -1.9679 -0.6385
17865THY    HM337101   4.790   2.078   4.400  1.1356 -1.5506 -0.7588
17865THY    CA637102   4.773   2.222   4.161  0.1557 -0.4807 -0.3458
17865THY    HA637103   4.802   2.296   4.235  0.1935 -2.5921  1.8774
17866THY      O37104   3.970   1.302   6.394 -0.1297  0.4895  0.0521
17866THY     HO37105   4.062   1.332   6.394 -0.5569 -0.2569  1.4323
17866THY    CA137106   3.960   1.203   6.492  0.0033 -0.3936 -0.2526
17866THY    CA237107   3.841   1.121   6.495  0.1295 -0.6847  0.3044
17866THY    CP137108   3.739   1.134   6.380 -0.1691 -0.1194  0.3224
17866THY    HP137109   3.768   1.217   6.315 -2.4475  1.0214  2.1149
17866THY    CP237110   3.593   1.164   6.427  0.0572 -0.3017 -0.1983
17866THY    HP237111   3.555   1.089   6.499 -3.2447 -2.4206 -0.7783
17866THY    HP337112   3.526   1.181   6.342  1.4040 -0.7975  3.2684
17866THY    HP437113   3.592   1.261   6.477  1.4135 -2.5693  1.0587
17866THY    CP337114   3.743   1.008   6.295  0.4091 -0.0346 -0.3081
17866THY    HP537115   3.711   1.022   6.191 -0.0765  0.2073  0.4569
17866THY    HP637116   3.680   0.926   6.331 -0.6482 -0.7878  0.1491
17866THY    HP737117   3.842   0.961   6.287  1.4673  1.6265  1.4858
17866THY    CA337118   3.824   1.033   6.603 -0.8137  0.0737 -0.1953
17866THY    HA337119   3.741   0.964   6.618  0.5366  0.2120 -1.8662
17866THY    CA437120   3.923   1.031   6.702 -0.5567 -0.6688  0.7878
17866THY    HA437121   3.908   0.969   6.789  1.4583  0.2117  1.4567
17866THY    CA537122   4.038   1.110   6.693 -0.1484 -0.1109 -0.6621
17866THY    CM137123   4.144   1.107   6.803 -0.4795  0.2012  0.0659
17866THY    HM137124   4.106   1.027   6.868 -0.2599 -0.0979 -0.2859
17866THY    HM237125   4.150   1.203   6.855  0.4659  0.1643  0.0384
17866THY    HM337126   4.241   1.067   6.769 -1.0941  0.4557 -1.7063
17866THY    CA637127   4.057   1.202   6.589 -0.7237  0.3626 -0.3986
17866THY    HA637128   4.146   1.264   6.584 -0.1303  1.0277 -1.1825
17867THY      O37129   7.768   8.355   3.814 -0.2256  0.4119  0.0858
17867THY     HO37130   7.726   8.427   3.864 -1.0893 -2.6964  1.9315
17867THY    CA137131   7.842   8.414   3.723  0.3236 -0.3197  0.7824
17867THY    CA237132   7.942   8.344   3.659  0.5523 -0.1498 -0.0316
17867THY    CP137133   7.966   8.203   3.692 -0.6830  0.2223 -0.2120
17867THY    HP137134   7.954   8.197   3.801 -1.7310  0.0759 -1.4394
17867THY    CP237135   8.113   8.153   3.650  0.5265 -0.2135  0.4813
17867THY    HP237136   8.194   8.215   3.691  0.0082 -0.7984  1.5798
17867THY    HP337137   8.128   8.125   3.545  0.2137  0.0888 -0.8732
17867THY    HP437138   8.135   8.055   3.695 -0.7411 -0.7442 -0.0706
17867THY    CP337139   7.868   8.114   3.617  0.3834 -0.2435 -0.4387
17867THY    HP537140   7.896   8.012   3.644 -1.7058 -1.0205 -1.2851
17867THY    HP637141   7.875   8.123   3.508 -1.1131 -0.3386 -0.0670
17867THY    HP737142   7.761   8.132   3.632  0.8645  1.7430  1.1809
17867THY    CA337143   8.018   8.408   3.561  0.0042  0.4326 -0.6243
17867THY    HA337144   8.102   8.357   3.515 -0.3813  0.3675 -1.2149
17867THY    CA437145   7.982   8.547   3.527 -0.3932  0.9926  0.6781
17867THY    HA437146   8.053   8.600   3.464 -1.1178  0.5695  1.1597
17867THY    CA537147   7.880   8.612   3.597 -0.3805  0.7301  0.5765
17867THY    CM137148   7.858   8.757   3.568  0.1582  0.3381 -0.0889
17867THY    HM137149   7.864   8.804   3.667 -0.1991 -0.1140  0.9520
17867THY    HM237150   7.760   8.777   3.524 -0.2599  0.7092 -1.2728
17867THY    HM337151   7.940   8.793   3.505 -0.5264  1.0889  3.0879
17867THY    CA637152   7.803   8.548   3.690  0.1028  0.1559  0.3872
17867THY    HA637153   7.721   8.596   3.744 -0.0023 -0.0584  0.4473
17868THY      O37154   1.819   6.746   7.591  0.5764 -0.0711 -0.0554
17868THY     HO37155   1.723   6.737   7.573  0.7843 -1.3534  0.1093
17868THY    CA137156   1.877   6.762   7.476  0.3041  0.2482  0.0612
17868THY    CA237157   2.012   6.741   7.459  0.0230  0.3127  0.5545
17868THY    CP137158   2.106   6.693   7.570 -0.6869 -0.1456  0.4750
17868THY    HP137159   2.065   6.735   7.662  0.6797 -0.0588  1.6989
17868THY    CP237160   2.244   6.748   7.550 -0.3605  0.2147 -0.0285
17868THY    HP237161   2.234   6.853   7.518  0.1407  0.4977  0.1109
17868THY    HP337162   2.298   6.688   7.476 -0.4466  1.8426 -2.2333
17868THY    HP437163   2.296   6.755   7.646 -0.7667  0.3250  2.2929
17868THY    CP337164   2.112   6.540   7.587 -0.3762 -0.2292  0.5637
17868THY    HP537165   2.188   6.525   7.664 -0.7524  0.4105  1.8430
17868THY    HP637166   2.149   6.493   7.495  0.8229  0.2208  0.6005
17868THY    HP737167   2.012   6.500   7.608  0.6261 -0.1113 -2.0667
17868THY    CA337168   2.064   6.779   7.330  0.1227  0.2546 -0.5954
17868THY    HA337169   2.168   6.771   7.303  0.1591 -0.3434  1.4517
17868THY    CA437170   1.977   6.827   7.231  0.0275  0.5462  0.0752
17868THY    HA437171   2.020   6.864   7.139 -1.0729  0.3162  0.8133
17868THY    CA537172   1.840   6.827   7.246 -0.0855 -0.7836  0.1118
17868THY    CM137173   1.760   6.887   7.134  0.3511 -0.2811 -0.5173
17868THY    HM137174   1.825   6.940   7.063  0.3111  0.5826  0.7378
17868THY    HM237175   1.676   6.952   7.161 -2.5001 -1.5452 -3.3775
17868THY    HM337176   1.701   6.807   7.089 -0.4882 -0.1702  0.0252
17868THY    CA637177   1.784   6.796   7.373 -0.6833 -0.2739 -0.2830
17868THY    HA637178   1.682   6.823   7.396 -1.4686 -1.5420 -1.9589
17869THY      O37179   7.239   3.524   6.855 -0.1253 -0.3731 -0.3461
17869THY     HO37180   7.227   3.589   6.784 -1.3763  0.2328  0.1200
17869THY    CA137181   7.291   3.416   6.804 -0.3436  0.4366  0.6059
17869THY    CA237182   7.357   3.319   6.883  0.7732  0.3745  0.2100
17869THY    CP137183   7.371   3.347   7.031  0.2721 -0.3116  0.0249
17869THY    HP137184   7.292   3.417   7.059 -1.1604 -1.8540 -0.8787
17869THY    CP237185   7.508   3.399   7.080 -0.7209  0.2586  0.2746
17869THY    HP237186   7.507   3.503   7.047 -0.4834  2.4906  1.0366
17869THY    HP337187   7.590   3.342   7.035  0.3218  2.3837  0.0215
17869THY    HP437188   7.523   3.406   7.188 -0.2850  0.1285  1.5261
17869THY    CP337189   7.332   3.218   7.109 -0.5739 -0.1229  0.5065
17869THY    HP537190   7.225   3.196   7.104 -0.7398 -1.9601  1.5148
17869THY    HP637191   7.357   3.213   7.215 -1.0204  0.3311  4.4888
17869THY    HP737192   7.397   3.138   7.073 -0.9560  0.5313 -0.1030
17869THY    CA337193   7.408   3.210   6.818 -0.4186  0.6953  0.2779
17869THY    HA337194   7.471   3.136   6.868 -0.1664  1.1961  0.8182
17869THY    CA437195   7.396   3.188   6.680 -0.4084 -0.3245  0.3222
17869THY    HA437196   7.432   3.094   6.639 -1.1209  0.2393 -0.1981
17869THY    CA537197   7.312   3.269   6.610 -0.6268 -0.1880 -0.1029
17869THY    CM137198   7.272   3.247   6.469 -0.3996 -0.3104  0.4611
17869THY    HM137199   7.215   3.156   6.448 -0.1037  0.3287  0.1240
17869THY    HM237200   7.363   3.237   6.408  1.6254  2.5349  0.2227
17869THY    HM337201   7.212   3.331   6.432 -1.4897 -0.3118 -0.2982
17869THY    CA637202   7.271   3.384   6.665  0.0452 -0.7740 -0.2635
17869THY    HA637203   7.208   3.456   6.615  1.5095  0.3960  1.9638
17870THY      O37204   6.885   6.356   3.272  0.4389 -0.4019 -0.1048
17870THY     HO37205   6.859   6.275   3.225 -1.3330  0.8429 -0.3270
17870THY    CA137206   6.776   6.437   3.262  0.9451  0.3584 -0.0653
17870THY    CA237207   6.790   6.568   3.221 -0.5422  0.1649 -0.1672
17870THY    CP137208   6.929   6.621   3.192  0.2550  0.3872 -0.6426
17870THY    HP137209   7.015   6.559   3.220  2.3959 -1.8799  1.1090
17870THY    CP237210   6.954   6.758   3.263 -0.0466  0.0673  0.2263
17870THY    HP237211   7.060   6.784   3.266  0.0687  1.7751 -0.2983
17870THY    HP337212   6.919   6.747   3.367 -1.5668 -0.3047  1.2110
17870THY    HP437213   6.893   6.830   3.208 -2.8820 -0.6595 -2.5062
17870THY    CP337214   6.951   6.628   3.040 -0.3869 -0.3199 -0.8654
17870THY    HP537215   6.885   6.703   2.995 -0.2534  0.7671 -0.0709
17870THY    HP637216   6.937   6.529   2.995  0.0240 -0.5427 -0.8256
17870THY    HP737217   7.051   6.666   3.018  0.0215  1.2819 -0.9468
17870THY    CA337218   6.680   6.644   3.197  0.3225 -0.4844  0.1664
17870THY    HA337219   6.700   6.743   3.156  1.6722 -0.5079 -0.1061
17870THY    CA437220   6.554   6.598   3.229  0.1097  0.9518  0.1716
17870THY    HA437221   6.475   6.667   3.198  1.1063 -3.3893 -0.3081
17870THY    CA537222   6.536   6.466   3.273 -0.0268 -0.0933  0.1942
17870THY    CM137223   6.400   6.412   3.305 -0.0437  0.3110  0.0234
17870THY    HM137224   6.345   6.491   3.356  1.1423 -1.4637  2.0871
17870THY    HM237225   6.398   6.315   3.357  1.1563 -1.3805 -0.9648
17870THY    HM337226   6.351   6.388   3.211 -0.1203  0.6695 -1.3074
17870THY    CA637227   6.648   6.392   3.293 -0.0320  0.0881 -0.0826
17870THY    HA637228   6.635   6.292   3.334  0.7107 -1.2731 -0.7606
17871THY      O37229   3.407   3.108   4.457  0.4073 -0.1161  0.8528
17871THY     HO37230   3.466   3.032   4.439 -3.3099 -2.5339 -1.7895
17871THY    CA137231   3.286   3.060   4.431  0.3932 -0.1941  0.0091
17871THY    CA237232   3.167   3.116   4.481 -0.4800  0.6523 -0.8215
17871THY    CP137233   3.174   3.236   4.580 -0.2451  0.6632  0.7462
17871THY    HP137234   3.262   3.225   4.645  0.1946 -0.1456 -0.6954
17871THY    CP237235   3.049   3.234   4.675 -0.0650  0.4148  0.4998
17871THY    HP237236   3.045   3.130   4.709 -0.5960 -0.4619  0.2244
17871THY    HP337237   2.951   3.260   4.633  0.1616 -0.3745  0.1040
17871THY    HP437238   3.083   3.296   4.759  4.5171 -0.1637 -0.8492
17871THY    CP337239   3.188   3.374   4.500 -0.0658  0.0224 -0.1906
17871THY    HP537240   3.195   3.451   4.578 -1.0965 -0.1308  0.0755
17871THY    HP637241   3.099   3.399   4.442 -0.6834  0.6932 -0.7466
17871THY    HP737242   3.277   3.362   4.438  0.4170  0.4145  1.2591
17871THY    CA337243   3.044   3.064   4.437  0.2674 -0.3587  0.1644
17871THY    HA337244   2.955   3.119   4.468  0.6739  0.1724  0.5311
17871THY    CA437245   3.040   2.949   4.351  0.1931 -0.5030 -0.0445
17871THY    HA437246   2.944   2.910   4.315 -1.7449  2.6352  1.4609
17871THY    CA537247   3.156   2.890   4.305  0.2687 -0.5260  0.4602
17871THY    CM137248   3.147   2.773   4.208  0.2787  0.4583 -0.6055
17871THY    HM137249   3.065   2.708   4.243 -1.6117  1.1389  1.9818
17871THY    HM237250   3.244   2.722   4.205  0.0598 -0.6896 -0.9932
17871THY    HM337251   3.131   2.805   4.105 -1.0768  1.1260  1.0128
17871THY    CA637252   3.280   2.950   4.339 -0.3729  0.0464  0.1396
17871THY    HA637253   3.370   2.916   4.291 -0.1382 -0.1191  0.9672
17872THY      O37254   0.900   6.123   4.752 -0.4253  0.5229  0.3984
17872THY     HO37255   0.907   6.124   4.655  0.0797  0.5649  0.7286
17872THY    CA137256   0.836   6.241   4.780 -0.1261 -0.0087  1.0323
17872THY    CA237257   0.778   6.266   4.911 -0.0444 -0.3572 -0.0772
17872THY    CP137258   0.808   6.179   5.034 -0.0713  0.3666  0.5664
17872THY    HP137259   0.847   6.082   5.000  2.2305  0.6041  1.3378
17872THY    CP237260   0.690   6.153   5.127  0.0944 -0.4246  0.3848
17872THY    HP237261   0.671   6.242   5.188  1.6870 -0.0776  0.5211
17872THY    HP337262   0.709   6.069   5.194  0.8761  0.2630  1.0849
17872THY    HP437263   0.606   6.127   5.062  1.3528 -1.0903 -2.3348
17872THY    CP337264   0.926   6.244   5.104  0.2164 -0.0667 -0.2917
17872THY    HP537265   1.003   6.259   5.028 -2.8604 -3.6267 -0.8802
17872THY    HP637266   0.951   6.176   5.186  0.3768  1.1151  1.1432
17872THY    HP737267   0.895   6.344   5.135  0.6830  0.2333 -0.2393
17872THY    CA337268   0.720   6.390   4.935 -0.4336 -0.0676  0.3663
17872THY    HA337269   0.663   6.428   5.019 -1.5086 -1.6019  2.4244
17872THY    CA437270   0.720   6.476   4.827 -0.2003 -0.0554  0.3099
17872THY    HA437271   0.677   6.574   4.842  0.0708 -1.9182  0.7452
17872THY    CA537272   0.765   6.444   4.703 -0.2898  0.0886 -0.2826
17872THY    CM137273   0.766   6.549   4.594 -0.0603 -0.7037 -0.3141
17872THY    HM137274   0.668   6.559   4.545 -0.0494 -0.3143  2.7336
17872THY    HM237275   0.834   6.539   4.509  0.3190 -0.3427 -0.8365
17872THY    HM337276   0.772   6.649   4.640  0.9644 -0.5970 -0.4220
17872THY    CA637277   0.824   6.327   4.679 -0.4309  0.1886  1.0233
17872THY    HA637278   0.866   6.302   4.581  2.2252  1.3105  0.7877
17873THY      O37279   7.872   4.608   4.849 -0.2904 -0.0288  0.2234
17873THY     HO37280   7.906   4.517   4.860  2.7321  2.8261  1.5076
17873THY    CA137281   7.776   4.600   4.760 -0.1643 -0.0369 -0.3863
17873THY    CA237282   7.702   4.715   4.731 -0.6014  0.2466 -0.2243
17873THY    CP137283   7.737   4.853   4.808 -0.1143  0.0187 -0.8687
17873THY    HP137284   7.839   4.856   4.848 -0.1932  0.1632  0.7085
17873THY    CP237285   7.657   4.871   4.930  0.1957 -0.5427  0.1373
17873THY    HP237286   7.696   4.952   4.994  1.0565 -0.3917 -0.3927
17873THY    HP337287   7.631   4.779   4.984 -0.0239 -2.7447 -1.1542
17873THY    HP437288   7.555   4.894   4.896  0.8064 -1.6703  1.3489
17873THY    CP337289   7.724   4.973   4.721  0.0281  0.4176 -0.2522
17873THY    HP537290   7.792   4.961   4.636  0.5990  1.0684 -2.1109
17873THY    HP637291   7.764   5.058   4.777 -0.4567 -0.3655  0.5012
17873THY    HP737292   7.621   4.998   4.694  0.0759 -0.1339 -0.6278
17873THY    CA337293   7.589   4.705   4.648  1.6273  0.0256  0.3193
17873THY    HA337294   7.530   4.795   4.634 -0.1168  1.7859 -0.4584
17873THY    CA437295   7.565   4.587   4.574 -0.1271 -0.5753  0.5021
17873THY    HA437296   7.482   4.584   4.504 -0.1581 -0.5065 -0.4415
17873THY    CA537297   7.636   4.469   4.606  0.1328 -0.4544  0.1632
17873THY    CM137298   7.609   4.342   4.528 -0.5055 -0.5678 -0.4242
17873THY    HM137299   7.515   4.295   4.561  0.4306  0.1508 -1.8697
17873THY    HM237300   7.692   4.274   4.550  0.6925 -0.0964  1.1251
17873THY    HM337301   7.614   4.347   4.419 -1.0693 -0.6424 -1.3237
17873THY    CA637302   7.746   4.472   4.694 -0.2939 -0.9197 -0.4449
17873THY    HA637303   7.814   4.387   4.690  0.8027 -1.0412  0.4030
17874THY      O37304   1.389   4.003   6.362  0.7912 -0.3307 -0.1280
17874THY     HO37305   1.343   4.047   6.435 -1.3886 -0.6128 -1.7477
17874THY    CA137306   1.493   3.952   6.429 -0.2343 -0.5853  0.8635
17874THY    CA237307   1.591   3.876   6.366 -0.0797  0.2444 -0.1861
17874THY    CP137308   1.599   3.867   6.214  0.1359  0.1497  1.1548
17874THY    HP137309   1.505   3.900   6.167  0.0198 -1.0970 -0.7778
17874THY    CP237310   1.627   3.716   6.168  0.7425  0.4612 -0.1062
17874THY    HP237311   1.733   3.693   6.152  0.1033 -1.1069 -2.3171
17874THY    HP337312   1.593   3.696   6.065  1.8503  0.0971 -0.1524
17874THY    HP437313   1.576   3.652   6.241 -1.0500  1.3215  2.1675
17874THY    CP337314   1.709   3.956   6.146 -1.1511 -0.5220  0.2039
17874THY    HP537315   1.694   3.949   6.038 -1.2882 -0.5347  0.6702
17874THY    HP637316   1.811   3.929   6.176 -1.9900  1.6112 -0.8563
17874THY    HP737317   1.695   4.059   6.181 -0.2188  3.1082 -0.7635
17874THY    CA337318   1.693   3.812   6.441 -0.6714  0.1419  0.1004
17874THY    HA337319   1.773   3.755   6.394 -1.8231  0.3796 -1.8078
17874THY    CA437320   1.698   3.826   6.577  0.5754 -0.1287  0.2355
17874THY    HA437321   1.776   3.780   6.637 -0.6803  0.6329 -0.9996
17874THY    CA537322   1.605   3.917   6.639  0.2644 -0.7830  0.4762
17874THY    CM137323   1.618   3.955   6.785  0.5465  0.0963  0.7882
17874THY    HM137324   1.599   3.860   6.835  1.0635 -2.0885 -0.5214
17874THY    HM237325   1.544   4.033   6.807  0.1450 -0.7632  0.6574
17874THY    HM337326   1.716   3.996   6.812  0.4017  0.5152  0.8712
17874THY    CA637327   1.504   3.974   6.564 -0.6502 -0.1170 -0.1213
17874THY    HA637328   1.428   4.036   6.612 -0.1502 -0.0042  0.4084
17875THY      O37329   3.001   0.692   5.982 -0.5091  0.0802  0.2100
17875THY     HO37330   3.042   0.644   5.907 -1.1021  0.5904 -1.1428
17875THY    CA137331   3.100   0.777   6.031  0.0707  0.7088 -0.5783
17875THY    CA237332   3.073   0.841   6.157 -0.3554 -0.1458 -0.9841
17875THY    CP137333   2.942   0.824   6.237  0.6194  0.0274 -0.0033
17875THY    HP137334   2.870   0.762   6.182  2.1995 -1.3814 -0.6644
17875THY    CP237335   2.877   0.961   6.279 -0.5625  0.2573  0.2673
17875THY    HP237336   2.860   1.023   6.190 -0.8687  0.2633  0.1920
17875THY    HP337337   2.950   1.007   6.347  1.2289 -2.0217  1.0365
17875THY    HP437338   2.789   0.962   6.343 -1.0158 -0.3613  0.8927
17875THY    CP337339   2.952   0.747   6.370 -0.3429 -0.4344  0.2506
17875THY    HP537340   2.979   0.818   6.450 -0.2196  0.3916 -0.7129
17875THY    HP637341   3.022   0.663   6.362  0.6516 -0.1761  1.0174
17875THY    HP737342   2.853   0.707   6.392 -0.4725 -0.8287  0.3548
17875THY    CA337343   3.174   0.923   6.205  0.1844  0.3356 -0.1017
17875THY    HA337344   3.166   0.954   6.309 -1.1393 -0.4091  2.2526
17875THY    CA437345   3.287   0.954   6.124  0.2626  0.8868 -0.5450
17875THY    HA437346   3.373   1.009   6.162  1.8631  0.1447 -2.4217
17875THY    CA537347   3.300   0.909   5.990 -0.0237  0.3361  0.6682
17875THY    CM137348   3.414   0.926   5.902 -0.4778  0.0700 -0.3658
17875THY    HM137349   3.458   0.833   5.863  0.9528  0.6896  0.0168
17875THY    HM237350   3.496   0.977   5.955 -2.9811  3.3354  0.6501
17875THY    HM337351   3.393   1.001   5.826 -0.4865  0.1380 -0.2990
17875THY    CA637352   3.205   0.815   5.946  0.6565  0.7598  0.2658
17875THY    HA637353   3.209   0.777   5.844 -1.4189  1.3180 -1.7248
17876THY      O37354   6.156   7.374   4.889  0.3625 -0.4963  0.4749
17876THY     HO37355   6.084   7.422   4.846 -1.9605  2.2568 -0.2684
17876THY    CA137356   6.257   7.458   4.887 -0.9432 -0.1816 -0.0616
17876THY    CA237357   6.376   7.435   4.961 -0.0986 -0.5676 -0.0638
17876THY    CP137358   6.409   7.297   5.019 -0.7507  0.3593 -0.0340
17876THY    HP137359   6.329   7.225   4.996  1.9807  1.4015 -3.7224
17876THY    CP237360   6.439   7.292   5.164 -0.0663  0.4739  0.1342
17876THY    HP237361   6.530   7.339   5.204 -0.4312 -0.1435  1.4057
17876THY    HP337362   6.433   7.186   5.190  0.6724  2.4506  0.5251
17876THY    HP437363   6.353   7.347   5.206  0.6045  1.0681  0.7519
17876THY    CP337364   6.535   7.238   4.958 -0.7968  0.1615 -0.0972
17876THY    HP537365   6.539   7.274   4.855  2.1132  0.2648  0.0999
17876THY    HP637366   6.530   7.129   4.964 -0.6281  0.3864 -0.0931
17876THY    HP737367   6.623   7.277   5.009 -1.0899 -0.1230  0.9797
17876THY    CA337368   6.476   7.531   4.958  0.6854 -0.0920  0.9684
17876THY    HA337369   6.574   7.515   5.001 -0.1338  1.0991 -1.3761
17876THY    CA437370   6.466   7.656   4.895 -0.6362 -0.1535  0.9487
17876THY    HA437371   6.545   7.730   4.895 -0.3058  0.7497  0.6121
17876THY    CA537372   6.350   7.678   4.819 -0.0635 -0.4164 -0.3052
17876THY    CM137373   6.335   7.800   4.731 -0.7787  0.1217 -0.1521
17876THY    HM137374   6.232   7.820   4.698  0.0726 -1.1217  2.7729
17876THY    HM237375   6.397   7.787   4.641 -0.3209 -0.1250  2.9559
17876THY    HM337376   6.370   7.897   4.768 -0.1367 -2.7841  0.8335
17876THY    CA637377   6.251   7.579   4.813  0.1627  0.0570 -0.1415
17876THY    HA637378   6.167   7.599   4.746  1.4045 -1.4245  0.3236
17877THY      O37379   6.850   2.743   5.328 -0.3755  0.2272 -0.4339
17877THY     HO37380   6.898   2.759   5.411  0.2056  0.0901 -1.3671
17877THY    CA137381   6.905   2.629   5.272 -0.6214 -0.1985 -0.2314
17877THY    CA237382   6.881   2.585   5.138  0.1618  0.3699 -0.5875
17877THY    CP137383   6.800   2.670   5.027  0.5395  0.0072 -0.0311
17877THY    HP137384   6.780   2.770   5.067  1.4901 -0.2963  0.2852
17877THY    CP237385   6.663   2.623   5.023 -0.2999 -0.4107  0.1584
17877THY    HP237386   6.665   2.519   4.988 -0.9872 -0.4818  0.1643
17877THY    HP337387   6.602   2.683   4.955 -0.5581 -1.2198 -0.9835
17877THY    HP437388   6.629   2.633   5.127  0.1946 -0.2029 -0.2452
17877THY    CP337389   6.864   2.696   4.893 -0.5291  0.2647 -0.3660
17877THY    HP537390   6.954   2.757   4.907  0.1223 -3.2180 -0.3236
17877THY    HP637391   6.799   2.762   4.835 -0.4773  2.5513  1.8455
17877THY    HP737392   6.895   2.607   4.836 -0.1078 -0.7189  0.4030
17877THY    CA337393   6.928   2.461   5.094 -0.4078 -0.1264  0.2256
17877THY    HA337394   6.912   2.426   4.993  2.5101 -0.4057 -0.5561
17877THY    CA437395   6.991   2.380   5.186  0.6520 -0.3060 -0.5155
17877THY    HA437396   7.042   2.290   5.154 -1.4598 -0.1479 -1.8364
17877THY    CA537397   7.017   2.421   5.318  0.1756 -0.3884  0.6476
17877THY    CM137398   7.079   2.342   5.429 -0.6481  0.2284  0.6091
17877THY    HM137399   7.004   2.346   5.509 -0.3079  0.5092  1.8080
17877THY    HM237400   7.167   2.385   5.479 -1.4192  1.0224  1.3095
17877THY    HM337401   7.093   2.240   5.392 -0.6834  1.7805  0.0080
17877THY    CA637402   6.967   2.542   5.359 -0.6436 -0.7518 -0.0263
17877THY    HA637403   6.985   2.573   5.462  0.1452 -1.3763  1.7030
17878THY      O37404   6.835   8.832   2.374 -0.0617 -0.1173 -0.2905
17878THY     HO37405   6.859   8.921   2.342 -0.6359 -1.6249 -0.6489
17878THY    CA137406   6.762   8.790   2.276  0.0221  0.3159  0.1366
17878THY    CA237407   6.774   8.655   2.240  0.7781  0.1864  0.2035
17878THY    CP137408   6.857   8.548   2.308  0.4112  0.4031  0.2966
17878THY    HP137409   6.904   8.589   2.398  1.9194  0.4138 -1.3000
17878THY    CP237410   6.977   8.507   2.219 -0.1599  0.2319  0.4316
17878THY    HP237411   6.948   8.469   2.121  1.0019  0.6170 -1.6500
17878THY    HP337412   7.039   8.432   2.271 -0.4636 -0.3242 -0.2155
17878THY    HP437413   7.031   8.598   2.192  0.2582 -1.9128 -0.3983
17878THY    CP337414   6.792   8.419   2.350  0.4327 -0.9673  0.4647
17878THY    HP537415   6.694   8.443   2.391 -0.3787 -2.9827  0.7686
17878THY    HP637416   6.848   8.375   2.434 -2.2139 -0.4917 -2.3135
17878THY    HP737417   6.778   8.341   2.274  0.1084 -0.5168  0.0737
17878THY    CA337418   6.708   8.613   2.126  0.3969 -0.8089  0.3427
17878THY    HA337419   6.703   8.507   2.102 -1.0852 -0.2954  0.2680
17878THY    CA437420   6.640   8.703   2.055  0.5535 -0.4579  0.0728
17878THY    HA437421   6.584   8.664   1.970  1.1875 -0.8930  0.0954
17878THY    CA537422   6.618   8.835   2.090  0.1698 -0.4693 -0.2659
17878THY    CM137423   6.514   8.915   2.026 -0.5525 -0.2446  0.9674
17878THY    HM137424   6.543   8.918   1.920 -1.5319 -0.6262 -1.1999
17878THY    HM237425   6.507   9.018   2.063 -0.0097  0.9737  0.5887
17878THY    HM337426   6.419   8.866   2.049 -0.2093  1.5386  1.0697
17878THY    CA637427   6.689   8.877   2.203  0.3612  0.7812  0.8925
17878THY    HA637428   6.679   8.979   2.239 -0.0447  2.4586  0.2960
17879THY      O37429   9.200   7.294   1.835 -0.5362  0.2601  0.1630
17879THY     HO37430   9.274   7.346   1.872 -0.5128  0.7595 -0.2174
17879THY    CA137431   9.240   7.170   1.858 -0.2254 -0.4473  0.2652
17879THY    CA237432   9.183   7.069   1.782 -0.2077  0.1189 -0.1435
17879THY    CP137433   9.082   7.098   1.664 -0.8003 -0.0525 -0.7034
17879THY    HP137434   9.086   7.205   1.642  3.0163  1.5627 -0.3330
17879THY    CP237435   8.936   7.074   1.710 -0.5919  0.7059  0.2731
17879THY    HP237436   8.907   7.147   1.787  0.2925  0.8273  0.5150
17879THY    HP337437   8.924   6.978   1.760 -0.6989  1.4261  0.6488
17879THY    HP437438   8.869   7.075   1.624 -0.5891  0.7003  1.4029
17879THY    CP337439   9.119   7.018   1.528  0.1535  0.0252 -0.8192
17879THY    HP537440   9.049   7.053   1.452  0.1480  0.5750  0.4231
17879THY    HP637441   9.105   6.909   1.534 -0.6317  1.6050 -0.6545
17879THY    HP737442   9.218   7.053   1.497  0.2893  0.8527 -0.4501
17879THY    CA337443   9.239   6.939   1.800  0.0071  0.3172  0.3508
17879THY    HA337444   9.217   6.851   1.741  3.1632  0.3866 -0.6180
17879THY    CA437445   9.337   6.913   1.897 -0.4995  0.1192  0.1218
17879THY    HA437446   9.370   6.810   1.904  1.1969  1.1990  0.6948
17879THY    CA537447   9.391   7.018   1.973 -0.7762 -0.4308  0.1829
17879THY    CM137448   9.519   7.004   2.057  0.1075 -0.3224  0.1645
17879THY    HM137449   9.527   7.054   2.154  0.6000  0.6716 -1.7378
17879THY    HM237450   9.604   7.046   2.002 -0.8465  0.3881  3.2262
17879THY    HM337451   9.550   6.899   2.070 -2.1245 -2.8509 -0.9372
17879THY    CA637452   9.339   7.154   1.955 -0.4521 -0.8930  1.3294
17879THY    HA637453   9.384   7.236   2.010 -2.1742  0.5488  1.3539
17880THY      O37454   7.412   5.706   4.598  0.4225 -0.5380 -0.0617
17880THY     HO37455   7.406   5.694   4.695 -1.7998 -0.7516 -1.2174
17880THY    CA137456   7.543   5.707   4.562 -0.6026  0.0720 -0.9414
17880THY    CA237457   7.578   5.691   4.431 -0.6537  0.7582 -0.0458
17880THY    CP137458   7.471   5.680   4.320 -0.6488  0.0355  0.7762
17880THY    HP137459   7.369   5.678   4.362 -0.3791  1.0504 -3.8437
17880THY    CP237460   7.492   5.553   4.237  0.3639  1.0007 -0.7431
17880THY    HP237461   7.484   5.454   4.284 -4.2421 -0.7472 -1.4522
17880THY    HP337462   7.585   5.552   4.180  0.4491  0.8561  2.8119
17880THY    HP437463   7.423   5.542   4.153 -0.1828  1.4134 -0.5070
17880THY    CP337464   7.483   5.802   4.236  0.4384  0.2357 -0.1048
17880THY    HP537465   7.581   5.803   4.186  0.7786  0.7558 -2.3411
17880THY    HP637466   7.454   5.889   4.296 -0.6900  0.2696 -0.4851
17880THY    HP737467   7.402   5.793   4.163  0.2701  0.5274 -1.0656
17880THY    CA337468   7.718   5.671   4.403 -0.5795 -0.0309  0.0097
17880THY    HA337469   7.751   5.671   4.299  2.6743  0.8094  3.0111
17880THY    CA437470   7.812   5.671   4.506 -0.2306 -0.7113  0.2141
17880THY    HA437471   7.918   5.665   4.484 -0.2396 -0.9168  0.7561
17880THY    CA537472   7.771   5.695   4.639 -0.8175  0.2372  0.0824
17880THY    CM137473   7.872   5.704   4.749 -0.3226  0.1535  0.5808
17880THY    HM137474   7.831   5.777   4.820 -2.5178 -0.4197 -0.0233
17880THY    HM237475   7.968   5.730   4.702  0.0546 -0.5323 -1.8575
17880THY    HM337476   7.877   5.604   4.794  3.6320 -1.9794 -0.3873
17880THY    CA637477   7.633   5.703   4.664 -0.5616  0.9228 -0.0037
17880THY    HA637478   7.603   5.735   4.763 -1.0400  0.3731  1.3045
17881THY      O37479   3.064   6.601   6.827  0.3101 -0.0327  0.3440
17881THY     HO37480   3.102   6.645   6.749  0.7334 -0.9074 -1.4868
17881THY    CA137481   2.999   6.494   6.778 -0.0102  0.5659 -0.0439
17881THY    CA237482   2.877   6.453   6.817  0.4326 -0.5219  0.5390
17881THY    CP137483   2.799   6.531   6.929  0.3321 -0.2222 -0.8731
17881THY    HP137484   2.858   6.603   6.986 -1.8303  1.2728 -0.1989
17881THY    CP237485   2.767   6.434   7.037 -0.9406  0.3653  0.8042
17881THY    HP237486   2.682   6.367   7.018  1.5125 -1.1968 -2.0907
17881THY    HP337487   2.755   6.486   7.134 -0.3781  0.4365  0.8076
17881THY    HP437488   2.857   6.376   7.060 -1.3585 -0.3875 -0.1751
17881THY    CP337489   2.679   6.615   6.862  0.0672 -0.5896 -0.3232
17881THY    HP537490   2.710   6.644   6.761 -0.2230 -0.6957 -0.3762
17881THY    HP637491   2.641   6.700   6.919  2.5300  0.8244 -0.0830
17881THY    HP737492   2.587   6.556   6.862  0.9162  1.6414 -1.7875
17881THY    CA337493   2.823   6.328   6.769 -0.0746 -0.3971  0.0454
17881THY    HA337494   2.724   6.299   6.803 -1.0898 -4.5242 -2.1252
17881THY    CA437495   2.882   6.255   6.669  0.1601 -0.0581  0.5931
17881THY    HA437496   2.825   6.176   6.621 -0.6681 -1.4280  1.9571
17881THY    CA537497   3.004   6.308   6.625  0.4312 -0.1706  0.8382
17881THY    CM137498   3.064   6.243   6.510 -0.8769  0.5912 -0.7566
17881THY    HM137499   3.051   6.135   6.524 -0.7708 -0.1586 -0.8708
17881THY    HM237500   3.172   6.257   6.498 -0.9462 -2.1589 -1.9852
17881THY    HM337501   3.006   6.282   6.425 -0.6888  0.7238 -0.1698
17881THY    CA637502   3.063   6.424   6.679 -0.1848  0.0737 -0.0221
17881THY    HA637503   3.148   6.473   6.634 -1.5942  1.0970  3.7014
17882THY      O37504   2.892   2.649   6.074 -0.2740 -1.1283  0.7214
17882THY     HO37505   2.841   2.707   6.133  1.2605  0.4926  0.5005
17882THY    CA137506   2.814   2.543   6.027 -0.3940  0.3749 -0.3033
17882THY    CA237507   2.870   2.420   5.982 -0.3004  0.3559 -0.6214
17882THY    CP137508   3.016   2.401   5.995 -0.9361 -0.1349  0.3950
17882THY    HP137509   3.052   2.440   6.091  0.0277 -0.6948  0.9204
17882THY    CP237510   3.093   2.488   5.890  0.0359  0.1077 -0.9766
17882THY    HP237511   3.041   2.471   5.795  0.8056  0.0686 -3.4645
17882THY    HP337512   3.198   2.458   5.887  0.4874  2.2164  0.2101
17882THY    HP437513   3.088   2.594   5.918  1.4766 -1.5381 -0.4299
17882THY    CP337514   3.066   2.250   5.981 -0.1330  0.0167  0.0001
17882THY    HP537515   3.021   2.176   6.048  0.6412 -0.2485 -0.7278
17882THY    HP637516   3.171   2.241   6.011  0.1887 -0.7934  0.8774
17882THY    HP737517   3.048   2.217   5.878  1.0578  0.5096 -2.4185
17882THY    CA337518   2.786   2.323   5.921 -0.3591 -0.3437  0.0645
17882THY    HA337519   2.823   2.231   5.877 -0.9650 -0.3939 -0.1594
17882THY    CA437520   2.651   2.342   5.920  0.3587 -0.1965 -0.3559
17882THY    HA437521   2.579   2.269   5.884 -2.2890  2.2699  0.8770
17882THY    CA537522   2.597   2.461   5.963 -0.0107  0.0319 -0.8822
17882THY    CM137523   2.451   2.485   5.962 -0.2640  0.2130  0.1336
17882THY    HM137524   2.403   2.466   6.059 -0.6807 -0.2850 -1.5041
17882THY    HM237525   2.395   2.426   5.889 -0.6227  2.0068 -1.8546
17882THY    HM337526   2.440   2.582   5.913  0.7985 -1.8570 -0.7254
17882THY    CA637527   2.680   2.570   6.016  0.6419 -0.2530 -0.5258
17882THY    HA637528   2.642   2.668   6.040 -1.3419 -1.8502 -0.8300
17883THY      O37529   8.065   7.797   3.538  0.1287 -0.1880  0.5534
17883THY     HO37530   7.985   7.846   3.513 -1.2191 -0.6921 -1.7533
17883THY    CA137531   8.137   7.773   3.425 -0.4136  0.4765 -0.3717
17883THY    CA237532   8.216   7.657   3.416  1.3072 -0.2902  0.4233
17883THY    CP137533   8.227   7.560   3.529 -0.0383 -0.2518  0.5114
17883THY    HP137534   8.190   7.608   3.620 -1.5954 -0.2104 -0.6632
17883THY    CP237535   8.375   7.525   3.551  0.0975  0.4732  0.1944
17883THY    HP237536   8.428   7.621   3.556 -0.3471 -1.2341  0.5585
17883THY    HP337537   8.418   7.470   3.467 -2.2763 -1.1753  0.6862
17883THY    HP437538   8.391   7.471   3.645 -0.2993 -0.1908 -1.1167
17883THY    CP337539   8.150   7.429   3.507  0.3877 -0.8654  0.2637
17883THY    HP537540   8.048   7.455   3.479  0.9168 -3.4870 -0.1963
17883THY    HP637541   8.141   7.356   3.588  0.7107  0.2999  1.4743
17883THY    HP737542   8.178   7.371   3.418 -1.1931 -0.3036 -1.4609
17883THY    CA337543   8.281   7.628   3.288 -0.2109 -0.5406  0.4584
17883THY    HA337544   8.348   7.543   3.282  1.9047  2.8711  1.6490
17883THY    CA437545   8.254   7.714   3.177 -0.1642 -0.4649 -0.3516
17883THY    HA437546   8.299   7.686   3.082 -0.2546 -0.4180 -0.6584
17883THY    CA537547   8.181   7.831   3.198 -0.1431 -0.0621  0.2380
17883THY    CM137548   8.156   7.925   3.079  0.4438  0.8075 -0.2166
17883THY    HM137549   8.093   7.871   3.007  0.2973  0.7233  0.0660
17883THY    HM237550   8.247   7.962   3.030 -0.0159  0.2588  0.2136
17883THY    HM337551   8.104   8.014   3.114 -0.3990  2.5208 -1.3423
17883THY    CA637552   8.123   7.862   3.322  0.6443 -0.0678 -0.3574
17883THY    HA637553   8.064   7.951   3.341 -2.0691 -0.4028 -1.9690
17884THY      O37554   8.256   8.408   5.903 -0.4677  0.4359  0.4681
17884THY     HO37555   8.221   8.394   5.813  1.4040 -0.6608  2.1326
17884THY    CA137556   8.205   8.528   5.942  0.5245  0.1979  0.3105
17884THY    CA237557   8.277   8.601   6.040 -0.1737  0.4406 -0.7703
17884THY    CP137558   8.415   8.574   6.093  0.4106 -0.3290  0.5211
17884THY    HP137559   8.435   8.474   6.054 -2.4209 -1.0329  0.1675
17884THY    CP237560   8.424   8.553   6.247  0.6053 -0.0257 -0.7164
17884THY    HP237561   8.341   8.497   6.289  1.4523  2.1517 -0.4305
17884THY    HP337562   8.416   8.655   6.286  0.6707 -1.4073 -0.1604
17884THY    HP437563   8.516   8.505   6.282  1.8885  0.7478  2.0745
17884THY    CP337564   8.526   8.677   6.057  0.4364  0.1390  0.2601
17884THY    HP537565   8.622   8.641   6.096 -0.6156  2.5953 -0.1092
17884THY    HP637566   8.510   8.778   6.097 -2.3666 -3.8193  1.6341
17884THY    HP737567   8.548   8.676   5.950  0.7022  0.0979  3.2428
17884THY    CA337568   8.218   8.719   6.089 -1.1508  0.1216 -0.1196
17884THY    HA337569   8.260   8.778   6.169  1.4040 -1.2980  0.1282
17884THY    CA437570   8.093   8.754   6.043  0.1080 -0.1970  0.2227
17884THY    HA437571   8.048   8.843   6.087  0.7758  0.9285  0.0315
17884THY    CA537572   8.023   8.680   5.957  0.4135  0.3113 -0.4760
17884THY    CM137573   7.883   8.717   5.907  0.5231  0.0553 -0.1226
17884THY    HM137574   7.847   8.813   5.947  1.3245 -1.4110  0.8231
17884THY    HM237575   7.823   8.632   5.942  0.1514  0.1914  0.1917
17884THY    HM337576   7.874   8.715   5.798 -0.7437  0.1463 -2.3752
17884THY    CA637577   8.078   8.566   5.905 -0.5209 -0.0743 -0.7547
17884THY    HA637578   8.030   8.497   5.836  0.9131 -0.1581 -1.7205
17885THY      O37579   8.851   6.217   6.665  0.0592 -0.0815 -0.1550
17885THY     HO37580   8.900   6.134   6.680  0.3567  0.3548  0.0945
17885THY    CA137581   8.920   6.293   6.580  0.4167 -0.1533 -0.3090
17885THY    CA237582   8.862   6.409   6.522  0.2596 -0.2065  0.1434
17885THY    CP137583   8.716   6.444   6.560  0.2350  0.2500 -0.0866
17885THY    HP137584   8.671   6.367   6.625 -3.0334  0.4892  1.8261
17885THY    CP237585   8.619   6.462   6.435 -0.6079  0.0312  0.8849
17885THY    HP237586   8.616   6.367   6.380 -0.9164  1.2219  0.1956
17885THY    HP337587   8.647   6.538   6.361 -0.2322 -1.8246 -0.9779
17885THY    HP437588   8.515   6.470   6.469 -0.0383  1.5962  2.1255
17885THY    CP337589   8.710   6.579   6.647  1.0709 -0.0259 -0.4812
17885THY    HP537590   8.697   6.671   6.588  0.1696  3.5321  1.8814
17885THY    HP637591   8.799   6.585   6.710  0.4392  1.1747 -2.6169
17885THY    HP737592   8.622   6.570   6.712  1.6043  1.0089  1.2712
17885THY    CA337593   8.927   6.486   6.430  0.4001 -0.2266  0.0720
17885THY    HA337594   8.883   6.582   6.402  0.6803  0.6422  0.4614
17885THY    CA437595   9.054   6.439   6.387  0.2756  0.3200 -0.4320
17885THY    HA437596   9.110   6.501   6.319 -0.0864 -0.5142 -1.0007
17885THY    CA537597   9.105   6.323   6.437 -0.4377  0.8206 -0.3297
17885THY    CM137598   9.245   6.285   6.401 -0.3722  0.3947  0.6927
17885THY    HM137599   9.279   6.333   6.308  0.1928  0.1577 -0.1323
17885THY    HM237600   9.253   6.177   6.385 -0.2837  1.2131  0.5739
17885THY    HM337601   9.323   6.310   6.474 -0.7491  0.7414  0.8689
17885THY    CA637602   9.042   6.248   6.536  0.0541 -0.3133 -0.0306
17885THY    HA637603   9.086   6.168   6.594 -1.8692 -0.8568 -1.5486
17886THY      O37604   6.620   3.461   7.658  0.0090 -0.0594  0.0068
17886THY     HO37605   6.695   3.479   7.718 -0.8886  1.1807 -0.1979
17886THY    CA137606   6.511   3.494   7.730 -0.0114 -0.3881 -0.0324
17886THY    CA237607   6.388   3.533   7.665 -0.1486  0.2705 -0.3382
17886THY    CP137608   6.364   3.524   7.517  1.0349 -0.4615 -0.5133
17886THY    HP137609   6.443   3.472   7.463  0.3956 -0.4282 -1.5365
17886THY    CP237610   6.348   3.664   7.453 -0.4281 -0.3641 -0.2677
17886THY    HP237611   6.296   3.729   7.523  0.8016  0.3261  0.0090
17886THY    HP337612   6.306   3.653   7.352 -1.4169 -0.0579  0.5598
17886THY    HP437613   6.446   3.711   7.436  0.6727  0.9705 -1.9235
17886THY    CP337614   6.250   3.427   7.488 -0.4300 -0.4339  0.9053
17886THY    HP537615   6.266   3.342   7.555  1.7517 -1.2158  0.6250
17886THY    HP637616   6.254   3.382   7.388 -0.6645  0.2883 -0.7843
17886THY    HP737617   6.155   3.477   7.507  0.0033  1.6770  1.0102
17886THY    CA337618   6.284   3.576   7.756  0.0371  0.1677  0.6219
17886THY    HA337619   6.183   3.582   7.717 -0.5191  1.7373  2.3398
17886THY    CA437620   6.306   3.595   7.886  0.0102 -0.3313 -0.5696
17886THY    HA437621   6.228   3.629   7.954  0.8382 -1.0697  3.1962
17886THY    CA537622   6.417   3.548   7.943 -0.1325  0.4892 -0.0190
17886THY    CM137623   6.449   3.561   8.089  0.2837 -0.0714  0.3613
17886THY    HM137624   6.442   3.459   8.127 -0.6012  1.3837  0.9386
17886THY    HM237625   6.373   3.629   8.130 -1.2581 -1.9899 -0.0961
17886THY    HM337626   6.550   3.600   8.103 -0.1790  1.2816  1.1489
17886THY    CA637627   6.528   3.513   7.870  0.2196 -0.8025 -0.3277
17886THY    HA637628   6.627   3.501   7.914  0.9057 -1.0964  3.1556
17887THY      O37629   9.129   5.841   4.088 -0.8227 -0.4854  0.1092
17887THY     HO37630   9.209   5.893   4.110 -0.0693 -1.4908 -0.5897
17887THY    CA137631   9.103   5.884   3.965 -0.9183 -0.5362 -0.4824
17887THY    CA237632   9.051   5.789   3.862 -0.4799  0.0358 -0.6376
17887THY    CP137633   9.022   5.645   3.893 -0.4883 -0.2181 -0.3703
17887THY    HP137634   9.034   5.614   3.998 -1.5767 -0.5328 -1.9978
17887THY    CP237635   9.106   5.558   3.809 -0.0758  0.2380 -0.3764
17887THY    HP237636   9.087   5.595   3.708 -1.2609  0.2289 -0.9857
17887THY    HP337637   9.075   5.454   3.820 -0.1606 -0.6527 -0.4550
17887THY    HP437638   9.210   5.578   3.837 -0.2087 -1.0109  2.6629
17887THY    CP337639   8.872   5.612   3.868  0.1941 -0.4192 -0.2521
17887THY    HP537640   8.808   5.693   3.904  3.6082 -1.1562  3.0908
17887THY    HP637641   8.837   5.518   3.914  0.4620 -0.5347 -0.4112
17887THY    HP737642   8.850   5.597   3.762 -1.0736 -0.2710  0.4549
17887THY    CA337643   9.033   5.843   3.731  0.0820  0.3621  0.4096
17887THY    HA337644   8.981   5.784   3.656  0.3598  0.6794 -0.2346
17887THY    CA437645   9.058   5.987   3.704 -0.1332  0.3287 -0.0260
17887THY    HA437646   9.037   6.028   3.606  2.8571 -0.9013 -1.1743
17887THY    CA537647   9.098   6.067   3.808 -0.3713  0.0767  0.2125
17887THY    CM137648   9.109   6.215   3.780  0.5687  1.0076  0.6997
17887THY    HM137649   9.198   6.241   3.721 -0.4971 -0.1203  1.9031
17887THY    HM237650   9.110   6.273   3.873  1.1180  0.9959  0.7160
17887THY    HM337651   9.017   6.254   3.735  0.3990 -0.1413 -0.9145
17887THY    CA637652   9.122   6.015   3.939  0.0958  0.1889  0.4216
17887THY    HA637653   9.144   6.086   4.019 -0.9894 -1.3480  2.6048
17888THY      O37654   9.065   6.767   2.015  0.0289  0.2485 -0.0130
17888THY     HO37655   9.143   6.809   1.976 -1.8198 -3.0842  0.7354
17888THY    CA137656   9.081   6.759   2.150 -0.8298  0.4138 -0.3101
17888THY    CA237657   8.987   6.697   2.229  0.1966  0.1902 -0.3308
17888THY    CP137658   8.852   6.652   2.163 -0.4581  0.4315  0.0724
17888THY    HP137659   8.891   6.590   2.081 -0.1436  1.5460 -1.2415
17888THY    CP237660   8.757   6.763   2.120  0.0250 -0.0746  0.5550
17888THY    HP237661   8.723   6.834   2.196  0.7228 -0.7637  1.6580
17888THY    HP337662   8.672   6.711   2.076 -0.8315  0.6816  1.2798
17888THY    HP437663   8.801   6.824   2.041  0.2453  1.1326  2.0233
17888THY    CP337664   8.773   6.560   2.254 -0.1005 -0.0388 -0.5251
17888THY    HP537665   8.832   6.485   2.309  0.5627  0.0250  0.0248
17888THY    HP637666   8.693   6.505   2.204  0.6359 -0.4108 -1.2758
17888THY    HP737667   8.725   6.624   2.329  3.2111 -0.3330  2.6327
17888THY    CA337668   9.010   6.689   2.367 -0.1887 -0.2720  0.3033
17888THY    HA337669   8.928   6.655   2.430 -1.2959 -1.5656  0.4448
17888THY    CA437670   9.125   6.750   2.427  0.2407  0.1880  0.3428
17888THY    HA437671   9.135   6.745   2.535  0.0259  0.2128  0.4462
17888THY    CA537672   9.215   6.811   2.350  0.3510  0.4143 -0.2347
17888THY    CM137673   9.336   6.879   2.406  0.4663 -0.2472  0.7373
17888THY    HM137674   9.298   6.914   2.503  1.1871  0.5753 -0.6680
17888THY    HM237675   9.376   6.961   2.345 -0.7694 -1.4820  0.4484
17888THY    HM337676   9.411   6.801   2.427 -1.4825 -0.6950 -1.3699
17888THY    CA637677   9.204   6.801   2.212 -0.6371  0.2268 -0.5406
17888THY    HA637678   9.284   6.843   2.153  0.9057  2.6013  0.0137
17889THY      O37679   5.289   1.933   5.977  0.1172 -0.0827 -0.0203
17889THY     HO37680   5.266   1.843   5.950 -2.0217  2.3231 -0.2969
17889THY    CA137681   5.419   1.947   5.984 -0.2703  0.2358 -0.2429
17889THY    CA237682   5.487   2.052   6.052 -0.3859  0.4192 -0.2309
17889THY    CP137683   5.427   2.180   6.109 -0.1794  0.0508 -0.2658
17889THY    HP137684   5.320   2.176   6.090 -0.5745  1.9961 -0.0758
17889THY    CP237685   5.474   2.300   6.025  0.9601 -0.1359 -0.4649
17889THY    HP237686   5.580   2.315   6.048  1.3672 -0.1361 -2.9425
17889THY    HP337687   5.422   2.393   6.052  1.2562 -1.3913  0.0938
17889THY    HP437688   5.446   2.279   5.921  3.3657 -1.0834  0.5802
17889THY    CP337689   5.455   2.208   6.259 -0.3046 -0.1675 -0.1533
17889THY    HP537690   5.430   2.310   6.287  2.2773 -3.0889  1.4585
17889THY    HP637691   5.562   2.195   6.277 -0.6014  0.2722 -2.7031
17889THY    HP737692   5.392   2.136   6.313 -0.1676 -0.1875 -0.2874
17889THY    CA337693   5.631   2.036   6.045  0.1762  0.7874 -0.0401
17889THY    HA337694   5.693   2.118   6.080  1.0004  2.0835 -1.1642
17889THY    CA437695   5.692   1.919   5.995 -0.0167  0.3929  0.3019
17889THY    HA437696   5.801   1.924   5.988  0.1930 -1.0127 -3.1201
17889THY    CA537697   5.621   1.822   5.930  0.2449  0.2415 -0.1639
17889THY    CM137698   5.704   1.711   5.859  0.2646  0.0050 -0.0901
17889THY    HM137699   5.748   1.627   5.913  0.7005 -1.5566 -0.9200
17889THY    HM237700   5.786   1.760   5.806 -0.7616 -2.3629 -0.7576
17889THY    HM337701   5.642   1.662   5.782  0.3429 -0.2159  0.1537
17889THY    CA637702   5.485   1.832   5.929 -0.1839  0.3437  0.4535
17889THY    HA637703   5.430   1.761   5.868 -0.9478  0.1780  1.1665
17890THY      O37704   3.723   1.737   5.579 -0.7947 -0.3597  0.3120
17890THY     HO37705   3.793   1.780   5.631 -0.1589  0.0290 -1.1493
17890THY    CA137706   3.622   1.723   5.664  0.0005 -0.4360  0.1393
17890THY    CA237707   3.511   1.645   5.637  0.2882  0.3874 -0.3077
17890THY    CP137708   3.489   1.559   5.505  0.4896 -0.0538 -0.6456
17890THY    HP137709   3.585   1.569   5.453  0.7831  0.7590  1.1088
17890THY    CP237710   3.382   1.619   5.408 -0.4964  0.0757  0.3872
17890THY    HP237711   3.282   1.621   5.454 -0.5505  0.0089 -0.3516
17890THY    HP337712   3.370   1.551   5.323  0.2173 -1.5372  2.1948
17890THY    HP437713   3.417   1.717   5.375 -2.3687  1.5462  1.6259
17890THY    CP337714   3.458   1.415   5.523 -0.3471  0.3675 -0.3485
17890THY    HP537715   3.523   1.378   5.604 -1.2552  1.4124  0.2920
17890THY    HP637716   3.481   1.350   5.438 -0.7331  1.3780 -1.8600
17890THY    HP737717   3.354   1.407   5.555 -1.0624 -1.6530  0.3481
17890THY    CA337718   3.415   1.626   5.738  0.2261 -0.1276 -0.0828
17890THY    HA337719   3.330   1.562   5.719  0.3467 -1.2463  0.0756
17890THY    CA437720   3.416   1.694   5.855  0.6309 -0.5864  0.1174
17890THY    HA437721   3.336   1.686   5.929  2.3797  1.2122 -3.0202
17890THY    CA537722   3.530   1.769   5.882 -0.1514  0.0008  0.3161
17890THY    CM137723   3.540   1.831   6.015 -0.7280 -0.6598 -0.8766
17890THY    HM137724   3.467   1.911   6.029  0.3631 -1.3037  0.2630
17890THY    HM237725   3.641   1.873   6.010 -0.9225 -1.9663 -0.5170
17890THY    HM337726   3.541   1.752   6.091 -2.0692 -0.8245 -1.0653
17890THY    CA637727   3.633   1.788   5.789 -0.0371  0.5044  0.5096
17890THY    HA637728   3.722   1.849   5.796  0.9147 -3.7520 -0.0210
17891THY      O37729   7.796   8.118   4.892 -0.6310  0.1058  0.6774
17891THY     HO37730   7.706   8.148   4.912 -2.2481  0.8201 -3.8261
17891THY    CA137731   7.877   8.197   4.970 -0.5050 -0.2881  0.4135
17891THY    CA237732   8.014   8.174   4.995 -0.3294 -0.2686 -0.0910
17891THY    CP137733   8.084   8.052   4.920 -0.2874 -0.1909 -0.7194
17891THY    HP137734   8.016   7.967   4.907 -1.0712 -0.4318 -0.0689
17891THY    CP237735   8.200   7.994   5.016  0.1030  0.7479  0.2500
17891THY    HP237736   8.172   7.982   5.121 -0.9900  0.6357  1.5761
17891THY    HP337737   8.285   8.062   5.030 -0.4442  1.5848  0.7784
17891THY    HP437738   8.237   7.897   4.980  0.2655 -2.2481  1.3259
17891THY    CP337739   8.147   8.094   4.784  0.4937  0.5837 -0.0720
17891THY    HP537740   8.080   8.151   4.720  0.0741  2.7916  2.0969
17891THY    HP637741   8.183   8.007   4.728 -0.4265 -1.7438  0.9704
17891THY    HP737742   8.236   8.153   4.809  1.6800 -0.7234 -1.2487
17891THY    CA337743   8.088   8.280   5.055 -0.6530  0.1246 -0.0232
17891THY    HA337744   8.195   8.275   5.074 -0.5878  1.5162  3.6881
17891THY    CA437745   8.026   8.387   5.114  0.4931  0.3246  0.5212
17891THY    HA437746   8.086   8.456   5.173  0.6519  1.0447 -0.2085
17891THY    CA537747   7.888   8.399   5.093  0.0702 -0.1360  0.2489
17891THY    CM137748   7.811   8.521   5.144 -0.0404  0.0021 -0.6682
17891THY    HM137749   7.870   8.611   5.163 -0.3511  0.5659 -0.5760
17891THY    HM237750   7.763   8.507   5.242 -1.6654 -0.6392  0.2884
17891THY    HM337751   7.733   8.544   5.072 -0.7201  0.3582 -1.7933
17891THY    CA637752   7.814   8.310   5.018  0.5651 -0.3131  0.3061
17891THY    HA637753   7.706   8.319   5.009  0.1601  2.0451 -1.3716
17892THY      O37754   3.420   7.490   3.492  0.3143 -0.0333 -0.1413
17892THY     HO37755   3.515   7.497   3.475  0.0368 -1.0856  1.5042
17892THY    CA137756   3.349   7.561   3.394 -0.3926  0.2438  0.2693
17892THY    CA237757   3.213   7.572   3.414  0.3378  0.0033  0.4245
17892THY    CP137758   3.138   7.517   3.529  0.2090  0.0001 -0.4938
17892THY    HP137759   3.205   7.461   3.595 -2.8135  1.7901 -2.1947
17892THY    CP237760   3.030   7.420   3.478  0.8132 -0.6400 -0.0192
17892THY    HP237761   3.081   7.345   3.416 -1.8637 -0.2996 -2.2695
17892THY    HP337762   2.961   7.467   3.407 -0.5739  1.7927  1.8092
17892THY    HP437763   2.982   7.362   3.557  0.3367 -1.9411 -1.4666
17892THY    CP337764   3.071   7.622   3.616  0.6261  0.5332  0.0835
17892THY    HP537765   3.060   7.575   3.714 -0.1741 -0.3035 -1.5637
17892THY    HP637766   2.979   7.660   3.571 -0.9450  1.7260 -2.1284
17892THY    HP737767   3.153   7.694   3.631 -0.0079  0.8757  0.7403
17892THY    CA337768   3.146   7.644   3.310 -0.2495 -0.4522  0.5897
17892THY    HA337769   3.039   7.659   3.322 -0.3892 -1.7415  0.6866
17892THY    CA437770   3.208   7.675   3.186  0.2857 -0.1064 -0.4796
17892THY    HA437771   3.156   7.727   3.106 -1.9778  1.6505  0.1179
17892THY    CA537772   3.340   7.642   3.171 -0.7016  0.0204  0.3267
17892THY    CM137773   3.421   7.663   3.044  0.0200 -0.5208  0.1139
17892THY    HM137774   3.444   7.574   2.984 -2.1047  1.6297 -2.0204
17892THY    HM237775   3.511   7.718   3.075 -0.5290  0.9502  0.2317
17892THY    HM337776   3.371   7.735   2.978 -0.5266 -2.4037 -1.8826
17892THY    CA637777   3.415   7.592   3.277 -0.2512 -0.4171 -0.1184
17892THY    HA637778   3.522   7.580   3.266 -0.1412 -0.7883  1.0925
17893THY      O37779   9.013   0.264   4.588  0.5488 -0.3097  0.4474
17893THY     HO37780   8.957   0.186   4.599 -0.2705  1.2055  1.2026
17893THY    CA137781   9.083   0.264   4.701  0.0014 -0.2186 -0.5182
17893THY    CA237782   9.221   0.308   4.696  0.2341  0.1189  0.4062
17893THY    CP137783   9.279   0.362   4.561  0.4251 -0.1055  0.7724
17893THY    HP137784   9.220   0.328   4.475  0.1650  0.6057 -0.6658
17893THY    CP237785   9.433   0.324   4.536  0.4511  0.6183  0.0061
17893THY    HP237786   9.493   0.390   4.600 -0.6035  1.0751  0.5582
17893THY    HP337787   9.470   0.329   4.434 -0.0235  0.3833 -1.0265
17893THY    HP437788   9.452   0.224   4.575  1.5101 -0.8977 -0.4126
17893THY    CP337789   9.257   0.508   4.554 -0.3585 -0.0674 -0.1827
17893THY    HP537790   9.295   0.551   4.647  0.5176 -0.6469  0.3272
17893THY    HP637791   9.150   0.528   4.543 -0.0358 -3.3758  0.2853
17893THY    HP737792   9.317   0.550   4.472  0.7855  1.3502  1.1099
17893THY    CA337793   9.291   0.320   4.820 -0.9405 -0.2308 -0.1824
17893THY    HA337794   9.397   0.341   4.823 -0.2495  1.4010 -3.3239
17893THY    CA437795   9.227   0.278   4.939  0.5293 -0.4005 -0.6729
17893THY    HA437796   9.273   0.279   5.037 -2.8177  1.3439  0.2281
17893THY    CA537797   9.091   0.243   4.941 -0.6315 -0.2639 -0.7431
17893THY    CM137798   9.026   0.199   5.063  0.8440  0.3830 -0.2322
17893THY    HM137799   8.918   0.209   5.043  0.8614 -0.1882 -1.1007
17893THY    HM237800   9.047   0.277   5.138 -0.5844  0.0400  0.5186
17893THY    HM337801   9.039   0.094   5.090 -0.8954 -1.4633 -0.9821
17893THY    CA637802   9.024   0.236   4.821  0.3260 -0.6430  1.3295
17893THY    HA637803   8.919   0.206   4.817 -0.3057  2.1271  2.8361
17894THY      O37804   6.769   7.815   6.908  0.1795 -0.1490 -0.3518
17894THY     HO37805   6.789   7.768   6.990  1.8609 -0.4640 -0.2526
17894THY    CA137806   6.838   7.749   6.806  0.1576 -0.0225  0.1999
17894THY    CA237807   6.828   7.777   6.673 -0.7721 -0.5776 -0.3107
17894THY    CP137808   6.745   7.908   6.629 -0.4961  0.5044 -0.3565
17894THY    HP137809   6.730   7.979   6.711 -0.9115 -1.3122  1.7798
17894THY    CP237810   6.615   7.872   6.556 -0.2514 -0.2193 -0.2379
17894THY    HP237811   6.621   7.794   6.478 -0.2807 -0.4315 -0.0308
17894THY    HP337812   6.576   7.961   6.506 -1.2269  0.3723 -0.3223
17894THY    HP437813   6.541   7.846   6.632  1.4753  0.6154 -3.1902
17894THY    CP337814   6.844   7.980   6.529  0.4167 -0.6952  0.5163
17894THY    HP537815   6.813   8.085   6.526 -1.3549 -0.7773  0.0153
17894THY    HP637816   6.838   7.936   6.429  0.6153 -0.3609 -0.2765
17894THY    HP737817   6.947   7.978   6.568  0.0742  0.2053 -1.0507
17894THY    CA337818   6.900   7.701   6.580  0.1642  0.2217  0.1129
17894THY    HA337819   6.889   7.722   6.474 -1.8596  0.1200 -1.2579
17894THY    CA437820   6.981   7.595   6.623 -0.4195 -0.4507  0.0850
17894THY    HA437821   7.019   7.524   6.550 -0.3466  0.0222 -0.3709
17894THY    CA537822   6.995   7.572   6.761  0.7692  1.5350  0.7277
17894THY    CM137823   7.091   7.467   6.817  0.3294  0.0538 -0.8376
17894THY    HM137824   7.088   7.466   6.926  1.2523  0.1324  0.8116
17894THY    HM237825   7.196   7.476   6.787  0.3388 -1.0672 -3.7288
17894THY    HM337826   7.069   7.366   6.781 -0.3309 -1.0754 -0.3189
17894THY    CA637827   6.923   7.651   6.851  0.4506  0.3427  0.0249
17894THY    HA637828   6.932   7.652   6.959 -1.3671  0.5393  1.4171
17895THY      O37829   6.356   8.695   4.401 -0.2770 -0.2984  0.4164
17895THY     HO37830   6.428   8.642   4.439  1.3796 -3.0618  0.5032
17895THY    CA137831   6.403   8.819   4.437 -0.3498  0.0005  0.5240
17895THY    CA237832   6.320   8.925   4.440  0.1924  0.7213 -1.2920
17895THY    CP137833   6.169   8.910   4.410 -0.3325 -0.3864  0.2167
17895THY    HP137834   6.127   8.809   4.398 -3.8947  1.9629  1.2739
17895THY    CP237835   6.140   8.972   4.274  0.2734  0.6838 -0.2163
17895THY    HP237836   6.165   9.079   4.275  1.5630  0.3939 -0.4872
17895THY    HP337837   6.036   8.959   4.245 -0.2101  2.4708 -0.6044
17895THY    HP437838   6.202   8.938   4.190 -1.5551 -0.7911 -0.0001
17895THY    CP337839   6.094   8.968   4.527 -1.0756 -0.1058  0.2568
17895THY    HP537840   6.120   8.918   4.620  0.4188 -0.0426  1.0855
17895THY    HP637841   5.985   8.963   4.517 -1.2769  0.2234  2.6365
17895THY    HP737842   6.122   9.074   4.527 -0.1246 -2.4739  0.0892
17895THY    CA337843   6.370   9.057   4.469 -0.1291  1.0209  0.9446
17895THY    HA337844   6.301   9.141   4.465 -2.3220 -0.1718 -0.8150
17895THY    CA437845   6.511   9.073   4.501  0.1539 -0.3662 -0.2925
17895THY    HA437846   6.550   9.173   4.512  0.3553  0.1865 -0.4265
17895THY    CA537847   6.589   8.954   4.503  0.3018  0.1012 -0.7403
17895THY    CM137848   6.739   8.970   4.527 -0.0501 -0.5150  0.2570
17895THY    HM137849   6.786   9.025   4.445  0.6960 -0.0978  0.2440
17895THY    HM237850   6.792   8.875   4.540 -0.3498  1.2817  0.3097
17895THY    HM337851   6.766   9.023   4.619 -2.2163  0.5647 -0.3683
17895THY    CA637852   6.538   8.829   4.469  0.1179 -0.1220 -0.2806
17895THY    HA637853   6.606   8.745   4.476 -0.6052 -2.7048 -1.1869
17896THY      O37854   2.110   3.286   3.607 -0.0125 -0.1757  0.2109
17896THY     HO37855   2.154   3.372   3.596 -1.0583  1.1698  0.9687
17896THY    CA137856   2.205   3.189   3.592 -0.4021 -0.0628  0.3882
17896THY    CA237857   2.183   3.051   3.565  0.0132  0.2054 -0.7113
17896THY    CP137858   2.042   3.003   3.537  0.1261 -0.0987  0.3316
17896THY    HP137859   1.974   3.084   3.565  0.8174 -1.1446  1.3045
17896THY    CP237860   2.002   2.894   3.643 -0.2924  0.1901  0.0660
17896THY    HP237861   2.064   2.805   3.652 -0.9449 -0.4495 -0.4716
17896THY    HP337862   1.893   2.878   3.647 -0.3800 -1.4308  0.0976
17896THY    HP437863   2.033   2.927   3.742 -2.2320  0.7842  0.2286
17896THY    CP337864   2.020   2.971   3.390  0.4168 -0.0957 -0.1222
17896THY    HP537865   2.027   3.061   3.328 -3.1656 -3.0055 -1.6281
17896THY    HP637866   1.916   2.938   3.393  0.7981 -0.1149 -1.3451
17896THY    HP737867   2.088   2.896   3.350 -0.3250 -1.8769  0.1170
17896THY    CA337868   2.289   2.963   3.553 -0.3048  0.0604  0.5974
17896THY    HA337869   2.265   2.861   3.524 -0.1621 -1.6939  1.0318
17896THY    CA437870   2.421   3.002   3.584 -0.2978  0.1697  0.0645
17896THY    HA437871   2.497   2.927   3.567 -2.2351 -0.7730 -1.7900
17896THY    CA537872   2.444   3.136   3.622  0.7687  0.2248  0.5353
17896THY    CM137873   2.581   3.177   3.654  0.0250  0.2597  0.4420
17896THY    HM137874   2.597   3.285   3.662 -0.9049  0.8034  0.5433
17896THY    HM237875   2.648   3.122   3.587 -2.2497  0.2811 -2.6322
17896THY    HM337876   2.615   3.122   3.742 -0.5114 -0.3627 -0.9274
17896THY    CA637877   2.337   3.227   3.628 -0.2338  0.8232 -0.6258
17896THY    HA637878   2.358   3.325   3.670  0.5469 -0.1474 -0.3646
17897THY      O37879   5.608   2.172   4.957 -0.0995  0.4266 -0.4892
17897THY     HO37880   5.676   2.223   5.005  0.2577  0.3332 -0.8685
17897THY    CA137881   5.496   2.171   5.021  0.3236  0.3338 -0.0988
17897THY    CA237882   5.370   2.143   4.961  0.7323 -0.2653  0.1854
17897THY    CP137883   5.366   2.091   4.825 -0.2193 -0.6782  0.2333
17897THY    HP137884   5.447   2.135   4.765  0.5412  1.1108  1.3887
17897THY    CP237885   5.235   2.131   4.742  0.6024 -0.8537 -0.1081
17897THY    HP237886   5.201   2.233   4.759  0.6322 -2.0027  0.1022
17897THY    HP337887   5.150   2.070   4.773 -0.7194 -0.9901  1.6047
17897THY    HP437888   5.254   2.122   4.634 -0.8959 -1.3195  1.7496
17897THY    CP337889   5.383   1.944   4.809  0.9127 -1.0234 -0.0146
17897THY    HP537890   5.289   1.897   4.841 -0.6220 -3.0024  1.5462
17897THY    HP637891   5.480   1.907   4.846 -0.3800  0.4409 -2.1284
17897THY    HP737892   5.372   1.921   4.703 -4.2012 -0.6378 -0.3544
17897THY    CA337893   5.253   2.162   5.035 -1.3192 -0.2743  0.0060
17897THY    HA337894   5.151   2.135   5.013 -2.3071  2.6792  0.8791
17897THY    CA437895   5.260   2.197   5.166  0.6872 -0.8107 -0.8260
17897THY    HA437896   5.164   2.209   5.214  1.5602  0.3353  3.3751
17897THY    CA537897   5.385   2.228   5.224 -0.5698  0.6849  0.5008
17897THY    CM137898   5.393   2.256   5.368  1.0182 -0.3838  0.4534
17897THY    HM137899   5.302   2.311   5.397  0.4848 -0.5334 -0.3351
17897THY    HM237900   5.476   2.321   5.399 -0.6550  2.0107  1.6221
17897THY    HM337901   5.399   2.166   5.430 -0.0447 -0.0314  0.6047
17897THY    CA637902   5.501   2.205   5.155  0.1498  0.2587  0.6340
17897THY    HA637903   5.598   2.208   5.204  0.3687  0.0183 -1.2057
17898THY      O37904   7.285   2.497   3.986 -0.1017  0.1786 -0.1658
17898THY     HO37905   7.233   2.544   4.054 -0.2548 -0.6650  0.9315
17898THY    CA137906   7.298   2.380   4.052  0.1126 -0.0642  0.6693
17898THY    CA237907   7.271   2.260   3.983 -0.2036  0.2077  0.0285
17898THY    CP137908   7.218   2.267   3.842 -0.5892  0.8002  0.2946
17898THY    HP137909   7.250   2.361   3.795 -3.1847 -2.3251 -0.1974
17898THY    CP237910   7.065   2.275   3.851 -0.0229 -0.4921 -1.1390
17898THY    HP237911   7.027   2.373   3.878 -2.3263  3.0953 -2.8301
17898THY    HP337912   7.033   2.209   3.932  0.8540 -0.6600 -1.8081
17898THY    HP437913   7.018   2.243   3.757 -0.0379 -1.0977  0.5542
17898THY    CP337914   7.278   2.156   3.757  0.3099  0.0674 -0.3871
17898THY    HP537915   7.378   2.137   3.795  0.8520 -0.8482  0.5542
17898THY    HP637916   7.279   2.183   3.650  0.4573  0.5709  1.7670
17898THY    HP737917   7.226   2.061   3.777  0.3852 -0.5498 -0.5671
17898THY    CA337918   7.294   2.136   4.051 -0.0556  0.8081 -0.2412
17898THY    HA337919   7.278   2.040   4.002  1.6927  1.4632 -0.9051
17898THY    CA437920   7.335   2.141   4.185  0.6206  0.0750 -0.4839
17898THY    HA437921   7.345   2.048   4.242 -1.4657 -1.3431 -1.6534
17898THY    CA537922   7.344   2.263   4.257  0.3225  0.1075  0.8131
17898THY    CM137923   7.381   2.267   4.402  0.4696 -0.1996  0.1396
17898THY    HM137924   7.425   2.172   4.435 -1.9526 -0.4350 -1.1560
17898THY    HM237925   7.292   2.289   4.463 -0.7394 -1.8833  0.0607
17898THY    HM337926   7.456   2.343   4.425  0.7334  1.7421 -0.6324
17898THY    CA637927   7.328   2.379   4.184  0.0360  0.6150  0.4562
17898THY    HA637928   7.336   2.477   4.230  1.0158 -0.6798  1.0075
17899THY      O37929   4.331   2.694   6.218 -0.6307 -0.4462  0.7713
17899THY     HO37930   4.307   2.789   6.212 -2.1186 -1.5616  0.3629
17899THY    CA137931   4.220   2.620   6.198 -0.0745 -0.0884 -1.4915
17899THY    CA237932   4.217   2.479   6.198 -0.4005  0.1604  0.5479
17899THY    CP137933   4.352   2.402   6.222 -0.4450 -0.3735 -0.3358
17899THY    HP137934   4.441   2.459   6.191 -0.5476 -0.9148 -0.4621
17899THY    CP237935   4.362   2.276   6.134 -0.0472  0.2146 -0.8023
17899THY    HP237936   4.284   2.204   6.163 -1.7458 -1.8158  0.1127
17899THY    HP337937   4.466   2.246   6.151  1.8337 -0.9973  4.0125
17899THY    HP437938   4.357   2.316   6.032  2.7782  0.9418  1.8331
17899THY    CP337939   4.378   2.351   6.366 -0.5883  0.5827 -0.2873
17899THY    HP537940   4.302   2.277   6.393 -0.6825  0.3031 -0.2936
17899THY    HP637941   4.361   2.445   6.420 -2.3583 -0.2844 -0.0620
17899THY    HP737942   4.480   2.312   6.370 -0.6752 -0.9138 -0.7276
17899THY    CA337943   4.096   2.410   6.205  0.9671 -0.0533 -0.6647
17899THY    HA337944   4.090   2.302   6.216  0.6584 -0.0523 -0.6498
17899THY    CA437945   3.973   2.487   6.210  0.7993  0.1830 -0.4560
17899THY    HA437946   3.876   2.439   6.210 -0.0254  0.2855  1.1557
17899THY    CA537947   3.975   2.627   6.197  0.0854  0.3373 -0.1553
17899THY    CM137948   3.853   2.710   6.173  0.7562 -0.6247  0.8317
17899THY    HM137949   3.840   2.736   6.067 -1.4417 -0.9472 -1.1657
17899THY    HM237950   3.852   2.797   6.240  1.2858  2.6337 -1.4911
17899THY    HM337951   3.769   2.642   6.195  0.9884  1.3052  1.1277
17899THY    CA637952   4.100   2.692   6.192 -0.4084 -0.2695  0.0782
17899THY    HA637953   4.104   2.800   6.180  1.7815 -1.1957 -0.0540
17900THY      O37954   1.194   6.965   4.516  0.1069  0.3069  0.2466
17900THY     HO37955   1.174   7.043   4.570 -1.2122  0.5128 -0.1967
17900THY    CA137956   1.171   6.856   4.591  0.1354  0.4497  0.5908
17900THY    CA237957   1.136   6.731   4.525 -0.6437 -0.3286  0.0269
17900THY    CP137958   1.145   6.713   4.372 -0.1064 -0.1940 -0.1037
17900THY    HP137959   1.239   6.760   4.340  0.1575 -0.5791 -0.8896
17900THY    CP237960   1.032   6.791   4.283 -0.5122  0.6345  0.9108
17900THY    HP237961   0.999   6.890   4.315 -0.2361  2.7599  0.3689
17900THY    HP337962   0.941   6.730   4.289  0.3624 -0.1186 -0.5445
17900THY    HP437963   1.055   6.805   4.177 -2.8644  0.1117  1.2365
17900THY    CP337964   1.177   6.572   4.320 -0.2187 -1.1138 -0.1981
17900THY    HP537965   1.263   6.533   4.375 -2.1178  1.2806 -1.2608
17900THY    HP637966   1.183   6.577   4.210  0.1790 -1.1875 -1.6810
17900THY    HP737967   1.091   6.505   4.334 -0.2029 -1.3375 -0.2661
17900THY    CA337968   1.083   6.629   4.610  0.4690 -0.5856  0.2652
17900THY    HA337969   1.038   6.539   4.569 -0.6721  1.9558 -0.4262
17900THY    CA437970   1.083   6.643   4.754 -0.5735 -0.0056 -0.0255
17900THY    HA437971   1.045   6.564   4.818 -2.4668  0.0716  0.9118
17900THY    CA537972   1.112   6.769   4.808 -0.1451  0.5187 -0.0906
17900THY    CM137973   1.101   6.779   4.960 -0.0832 -0.4948 -0.8203
17900THY    HM137974   1.138   6.684   5.001 -1.4417  0.6919 -0.8632
17900THY    HM237975   1.000   6.784   5.002  0.1125  0.0226 -1.1101
17900THY    HM337976   1.151   6.866   5.004 -3.1718 -0.7013  1.2202
17900THY    CA637977   1.155   6.873   4.725  0.6837 -0.4866 -0.3569
17900THY    HA637978   1.170   6.971   4.768  1.5809  0.5980 -0.9441
17901THY      O37979   3.786   3.518   1.984  0.5287  0.5980  0.5153
17901THY     HO37980   3.824   3.463   2.054 -2.1103  0.3316 -1.8335
17901THY    CA137981   3.799   3.454   1.865 -0.2802 -0.3741  0.5864
17901THY    CA237982   3.746   3.507   1.748 -0.8221 -0.8802 -0.7973
17901THY    CP137983   3.681   3.648   1.748  0.3171 -0.1183  0.4142
17901THY    HP137984   3.632   3.661   1.845 -1.4711 -0.8638 -0.4393
17901THY    CP237985   3.571   3.665   1.640 -0.0625  0.5157 -0.0386
17901THY    HP237986   3.510   3.753   1.662 -1.8674 -2.1089 -0.5324
17901THY    HP337987   3.497   3.585   1.631 -0.6771  0.4084  0.5311
17901THY    HP437988   3.612   3.685   1.541  1.8988  1.4511  0.8232
17901THY    CP337989   3.791   3.757   1.730 -0.0876  0.8859 -0.2070
17901THY    HP537990   3.856   3.719   1.651 -0.1835  0.1010  1.1626
17901THY    HP637991   3.858   3.763   1.817  1.4569 -0.2663 -0.2650
17901THY    HP737992   3.746   3.854   1.703 -1.2035  1.5873 -0.4985
17901THY    CA337993   3.765   3.435   1.630  0.2306 -0.5928  0.2742
17901THY    HA337994   3.732   3.478   1.536 -1.6190 -0.0956  0.0361
17901THY    CA437995   3.828   3.309   1.635 -0.1865  0.0687  0.6334
17901THY    HA437996   3.840   3.249   1.546 -0.2112  2.1367 -2.6581
17901THY    CA537997   3.885   3.259   1.751  0.5698  0.2045 -0.7148
17901THY    CM137998   3.954   3.122   1.743  0.1492  0.1921  0.0985
17901THY    HM137999   4.046   3.135   1.802  0.7068 -0.7040  0.3422
17901THY    HM238000   3.988   3.087   1.645  0.0797  0.2777 -0.2032
17901THY    HM338001   3.890   3.042   1.782  1.1652 -0.5911 -1.1361
17901THY    CA638002   3.866   3.329   1.871  0.1263  0.2464  0.4074
17901THY    HA638003   3.906   3.291   1.964 -1.7331  0.1811 -2.0245
17902THY      O38004   3.813   6.078   3.244 -0.4796  0.1945  0.5730
17902THY     HO38005   3.870   6.143   3.200 -0.2595 -1.6066 -0.7437
17902THY    CA138006   3.692   6.082   3.181  0.5618 -0.4153  0.2019
17902THY    CA238007   3.640   5.965   3.125 -0.6562  0.4573  0.3288
17902THY    CP138008   3.722   5.827   3.135 -0.1093 -0.1814 -0.4916
17902THY    HP138009   3.817   5.840   3.188  0.8929 -1.6175 -1.6326
17902THY    CP238010   3.762   5.781   2.990  0.3855 -0.0013 -0.2209
17902THY    HP238011   3.675   5.781   2.923  0.4752 -0.1193 -0.7711
17902THY    HP338012   3.813   5.684   2.993 -0.3101 -1.7962 -0.6878
17902THY    HP438013   3.823   5.863   2.950  2.2750  0.7309 -1.2123
17902THY    CP338014   3.636   5.717   3.203  0.0067  0.8143  0.5865
17902THY    HP538015   3.544   5.683   3.155  0.1150 -0.0274  1.4377
17902THY    HP638016   3.628   5.737   3.311  0.0270  0.5736  2.0235
17902THY    HP738017   3.685   5.619   3.201  0.1030  2.9680  0.5447
17902THY    CA338018   3.513   5.966   3.072 -0.1749 -0.0758  0.5937
17902THY    HA338019   3.468   5.875   3.034  1.4658  0.3535 -0.4452
17902THY    CA438020   3.448   6.094   3.063  0.3687  0.2913  0.3082
17902THY    HA438021   3.349   6.101   3.019 -0.3787  1.8575  0.0622
17902THY    CA538022   3.509   6.210   3.112  0.2029  0.1931  0.5808
17902THY    CM138023   3.448   6.342   3.095 -0.6351  0.3394 -0.1428
17902THY    HM138024   3.387   6.367   3.182  1.1938  1.0428  2.2173
17902THY    HM238025   3.386   6.330   3.005 -2.1944  1.2719  0.5294
17902THY    HM338026   3.526   6.415   3.071 -0.2677  2.6738  0.3035
17902THY    CA638027   3.628   6.206   3.173 -0.0577  0.2360  0.1671
17902THY    HA638028   3.670   6.294   3.221  1.4896 -0.7489  0.0117
17903THY      O38029   7.902   1.223   3.291  0.0152 -0.4006  0.5031
17903THY     HO38030   7.990   1.246   3.256 -0.2066 -0.7752  0.7937
17903THY    CA138031   7.839   1.340   3.279  0.2234  0.6510 -0.2506
17903THY    CA238032   7.694   1.350   3.268 -0.2110 -0.3446 -1.2609
17903THY    CP138033   7.608   1.218   3.248 -0.0776 -0.5969 -0.3606
17903THY    HP138034   7.654   1.128   3.290 -1.1415  3.3643  0.7685
17903THY    CP238035   7.575   1.211   3.100  0.6685 -0.1567  0.4748
17903THY    HP238036   7.558   1.312   3.062  0.1414 -0.1420  0.3967
17903THY    HP338037   7.487   1.149   3.078  1.0030 -1.6692  0.4951
17903THY    HP438038   7.660   1.174   3.041  1.4348  0.9336  0.4430
17903THY    CP338039   7.476   1.216   3.330 -0.0138 -0.3355  0.6901
17903THY    HP538040   7.418   1.123   3.319  0.8988  0.9179 -0.0550
17903THY    HP638041   7.413   1.297   3.290 -0.0619  1.3423  1.5203
17903THY    HP738042   7.514   1.211   3.433  2.0990 -1.1092 -0.8363
17903THY    CA338043   7.633   1.481   3.258 -0.2000  0.0390 -0.2414
17903THY    HA338044   7.525   1.490   3.250 -0.0047 -1.0084  2.0008
17903THY    CA438045   7.724   1.590   3.245  0.3154  0.6493 -0.1990
17903THY    HA438046   7.670   1.684   3.250  1.6177  0.3165  0.5936
17903THY    CA538047   7.860   1.583   3.250 -0.1454 -0.0307 -0.4032
17903THY    CM138048   7.950   1.713   3.245  0.2861 -0.0282  0.4125
17903THY    HM138049   7.938   1.773   3.155  0.4886 -0.1718  0.2410
17903THY    HM238050   8.056   1.682   3.250 -0.5560  2.3514 -2.6522
17903THY    HM338051   7.933   1.772   3.336 -1.9623  1.1787 -1.8889
17903THY    CA638052   7.916   1.458   3.261  0.6801 -0.6312 -0.0734
17903THY    HA638053   8.024   1.452   3.265  0.8167 -1.2918  1.5141
17904THY      O38054   5.921   7.273   2.581 -0.2294 -0.4680 -0.8462
17904THY     HO38055   5.926   7.363   2.618  0.3727 -2.5959  0.0701
17904THY    CA138056   5.796   7.222   2.608  0.6507 -0.1285  1.0857
17904THY    CA238057   5.755   7.091   2.571  0.4862  0.2326 -0.0681
17904THY    CP138058   5.849   7.009   2.480 -0.3116  0.1030 -0.5923
17904THY    HP138059   5.948   7.055   2.473 -0.8464 -3.1770  0.3524
17904THY    CP238060   5.789   7.006   2.339 -0.1356  0.2840 -0.1803
17904THY    HP238061   5.684   6.974   2.343 -0.3698  0.3274  0.5742
17904THY    HP338062   5.853   6.943   2.277 -1.2395 -1.8730  0.7465
17904THY    HP438063   5.798   7.108   2.302  1.7061  0.1137 -0.3764
17904THY    CP338064   5.859   6.867   2.528 -0.2868 -0.0880 -0.8549
17904THY    HP538065   5.760   6.820   2.524 -0.1839  0.0247 -1.0838
17904THY    HP638066   5.890   6.857   2.632  0.8242 -0.5072 -2.0462
17904THY    HP738067   5.925   6.799   2.472 -0.1143 -0.2223 -0.5814
17904THY    CA338068   5.629   7.042   2.617 -0.3731 -0.0424 -0.2643
17904THY    HA338069   5.594   6.945   2.582  1.4004 -1.8470 -0.3268
17904THY    CA438070   5.546   7.130   2.690 -0.2484 -0.7294 -0.4261
17904THY    HA438071   5.447   7.095   2.718  0.1280  0.8233 -0.3317
17904THY    CA538072   5.587   7.256   2.730 -0.4364  0.4278  0.7614
17904THY    CM138073   5.493   7.341   2.799  0.2157  0.4416  1.0621
17904THY    HM138074   5.456   7.289   2.888 -1.7223 -0.5314  0.6632
17904THY    HM238075   5.418   7.367   2.724  0.1210  0.6292  1.3435
17904THY    HM338076   5.544   7.431   2.835  2.7739  0.0977 -0.1606
17904THY    CA638077   5.716   7.297   2.689 -0.2270 -0.1812 -0.4618
17904THY    HA638078   5.752   7.398   2.707 -2.8899  0.6444  0.4191
17905THY      O38079   1.970   5.930   3.256 -0.1599  0.3569  0.6975
17905THY     HO38080   2.009   6.014   3.224 -0.9099  0.2994  1.0347
17905THY    CA138081   1.843   5.955   3.289  0.8009 -0.5726  0.3618
17905THY    CA238082   1.762   5.857   3.348  0.7187  0.6531  0.1611
17905THY    CP138083   1.818   5.725   3.391  0.6401  0.7679  0.3166
17905THY    HP138084   1.927   5.719   3.380  0.6505  1.3337 -0.8267
17905THY    CP238085   1.753   5.610   3.305  0.2535  0.1019 -0.2468
17905THY    HP238086   1.741   5.645   3.202 -1.1703  1.0542  2.4145
17905THY    HP338087   1.650   5.590   3.337  0.7438  0.6083 -2.1204
17905THY    HP438088   1.817   5.525   3.328 -0.0835  1.3995 -0.1822
17905THY    CP338089   1.790   5.709   3.537  0.2961 -0.0087 -0.5097
17905THY    HP538090   1.683   5.703   3.563  0.5130  1.3847  0.9301
17905THY    HP638091   1.840   5.785   3.598  2.9141 -2.2016 -0.3369
17905THY    HP738092   1.829   5.612   3.572 -0.6326 -0.3425 -1.0126
17905THY    CA338093   1.628   5.886   3.367  0.3121  0.1831 -0.3413
17905THY    HA338094   1.563   5.810   3.409  1.1950 -1.2573 -1.9547
17905THY    CA438095   1.572   6.012   3.337 -0.7828 -0.9931  0.1642
17905THY    HA438096   1.468   6.034   3.362 -1.2098 -1.7278 -0.8975
17905THY    CA538097   1.649   6.104   3.282 -0.3834 -0.4597 -0.3589
17905THY    CM138098   1.599   6.237   3.244  0.9657 -0.0410 -0.3688
17905THY    HM138099   1.565   6.300   3.327 -0.9510 -1.0782  0.0486
17905THY    HM238100   1.516   6.228   3.173  0.4356  0.4344  0.5704
17905THY    HM338101   1.683   6.291   3.199 -0.1485 -1.0843  0.5629
17905THY    CA638102   1.784   6.076   3.249  0.0446 -0.1146  0.0143
17905THY    HA638103   1.845   6.157   3.209 -1.3367 -2.7698 -0.1383
17906THY      O38104   4.571   3.373   4.309 -0.1709  0.2001  0.1894
17906THY     HO38105   4.638   3.363   4.240 -0.1157  0.1111  1.1426
17906THY    CA138106   4.458   3.417   4.247  0.3421 -0.3783  0.5649
17906THY    CA238107   4.353   3.470   4.320  0.6261  0.1104 -0.8991
17906THY    CP138108   4.361   3.490   4.477  0.2298  0.0600  0.2446
17906THY    HP138109   4.461   3.465   4.514  0.2920 -0.8188 -0.8932
17906THY    CP238110   4.260   3.396   4.557 -0.2962 -0.2913  0.2115
17906THY    HP238111   4.159   3.433   4.535 -0.7296 -2.0275 -1.8466
17906THY    HP338112   4.285   3.391   4.663  1.9393 -0.8297 -1.3464
17906THY    HP438113   4.249   3.294   4.519 -2.5063 -0.9208  0.6297
17906THY    CP338114   4.333   3.633   4.517  0.2471  0.1978  0.4502
17906THY    HP538115   4.371   3.649   4.618  0.3296  0.4905 -1.4224
17906THY    HP638116   4.225   3.653   4.509  0.1328 -3.2980 -0.8670
17906THY    HP738117   4.393   3.701   4.455 -0.6470 -1.3280 -0.0860
17906THY    CA338118   4.249   3.528   4.243  0.1884  0.1214  0.2617
17906THY    HA338119   4.174   3.583   4.298 -0.9438 -2.3677  1.3599
17906THY    CA438120   4.244   3.498   4.106 -0.8416 -0.5369 -0.2287
17906THY    HA438121   4.173   3.543   4.038  0.3501 -0.8760  1.2053
17906THY    CA538122   4.342   3.430   4.044 -0.1064  0.5519  0.3301
17906THY    CM138123   4.344   3.422   3.894 -0.1293 -0.4076  0.0317
17906THY    HM138124   4.402   3.335   3.860  1.0015 -0.3641  0.7532
17906THY    HM238125   4.394   3.507   3.847 -1.0834 -3.9980 -1.2159
17906THY    HM338126   4.241   3.406   3.859 -0.2093  1.0591 -3.8235
17906THY    CA638127   4.452   3.383   4.115  0.1915 -0.0188 -0.3253
17906THY    HA638128   4.533   3.338   4.058 -2.1193 -1.4977 -2.9295
17907THY      O38129   7.247   6.094   5.602 -1.1813 -0.5245 -0.4100
17907THY     HO38130   7.221   6.181   5.567  1.3476  0.7606  0.9681
17907THY    CA138131   7.253   6.118   5.737  0.9290  0.4010 -0.3137
17907THY    CA238132   7.253   6.011   5.825 -0.4290 -0.3845  0.0418
17907THY    CP138133   7.297   5.878   5.773 -0.3875  0.5034 -0.1102
17907THY    HP138134   7.283   5.868   5.665  0.1942  0.1476  2.1670
17907THY    CP238135   7.230   5.755   5.827 -0.3242 -0.4033  0.2164
17907THY    HP238136   7.124   5.757   5.797 -0.5561  0.3486 -0.1979
17907THY    HP338137   7.231   5.735   5.935  1.0218 -0.9584 -3.4943
17907THY    HP438138   7.279   5.667   5.784 -0.1662 -0.1129  0.1595
17907THY    CP338139   7.457   5.868   5.783  0.0359  0.5168 -0.3899
17907THY    HP538140   7.498   5.794   5.713  0.6971  0.3633  0.1111
17907THY    HP638141   7.484   5.847   5.887 -1.8127  1.8603  3.0175
17907THY    HP738142   7.504   5.963   5.756 -0.4714 -0.9809 -0.5386
17907THY    CA338143   7.249   6.038   5.965 -0.3453 -0.3470  0.3197
17907THY    HA338144   7.249   5.955   6.035  0.0856  1.5159  1.8273
17907THY    CA438145   7.235   6.170   6.013 -0.7382  0.2764  0.2443
17907THY    HA438146   7.238   6.186   6.121 -1.1028  0.1714  1.0767
17907THY    CA538147   7.226   6.274   5.923 -0.1861 -0.5271 -0.1267
17907THY    CM138148   7.190   6.411   5.974  0.8519 -0.1305  0.1343
17907THY    HM138149   7.081   6.421   5.975  0.9613 -0.6937  1.5514
17907THY    HM238150   7.234   6.478   5.899  1.6266 -1.3810 -1.6771
17907THY    HM338151   7.236   6.442   6.068  1.3679 -0.5719  0.7425
17907THY    CA638152   7.245   6.250   5.784  0.5555  0.7286 -0.2592
17907THY    HA638153   7.247   6.326   5.707  1.5852 -1.2568 -2.1898
17908THY      O38154   8.099   0.897   6.170  0.1021 -0.4286  0.7720
17908THY     HO38155   8.178   0.902   6.113  1.0740  0.2583 -3.2963
17908THY    CA138156   8.135   0.956   6.283  0.3081  0.1349  0.5456
17908THY    CA238157   8.102   0.902   6.411  1.0426 -0.1831 -0.2231
17908THY    CP138158   8.035   0.768   6.419 -0.4512  0.6025 -0.3801
17908THY    HP138159   8.046   0.724   6.320 -0.0249 -1.0856  3.1463
17908THY    CP238160   7.884   0.764   6.433  0.0561  0.1019  0.0377
17908THY    HP238161   7.835   0.675   6.393  0.2824 -0.4940  0.1780
17908THY    HP338162   7.833   0.850   6.390 -1.5554  1.4979 -0.1610
17908THY    HP438163   7.846   0.783   6.535 -2.3017 -0.7337  0.1552
17908THY    CP338164   8.105   0.667   6.514 -0.2045 -0.5729  0.4297
17908THY    HP538165   8.098   0.563   6.482 -4.0090 -2.4421  1.1055
17908THY    HP638166   8.064   0.664   6.615  1.6083  0.2012  0.0817
17908THY    HP738167   8.214   0.675   6.521 -0.3730  1.5760  1.4560
17908THY    CA338168   8.135   0.976   6.530 -0.1053  0.0255 -0.7289
17908THY    HA338169   8.098   0.944   6.627  1.6849  0.6525 -0.9852
17908THY    CA438170   8.225   1.087   6.511  0.2046 -0.1776  0.1902
17908THY    HA438171   8.258   1.150   6.593 -1.6678 -0.7147  1.9873
17908THY    CA538172   8.252   1.140   6.384 -0.4827 -0.2017  0.4097
17908THY    CM138173   8.340   1.265   6.365 -0.4255  1.0177 -0.2746
17908THY    HM138174   8.266   1.332   6.319 -1.1919  0.7710 -1.2616
17908THY    HM238175   8.424   1.255   6.296  0.4832  2.1322 -0.5622
17908THY    HM338176   8.370   1.307   6.462  0.0827  0.5324  0.4900
17908THY    CA638177   8.214   1.065   6.276  0.3438  1.0851 -0.5558
17908THY    HA638178   8.249   1.101   6.179  0.2801  0.8963 -0.9977
17909THY      O38179   8.029   2.377   7.245 -0.1782 -0.2315  0.1770
17909THY     HO38180   8.099   2.405   7.183  2.1588  2.5993  1.0983
17909THY    CA138181   8.082   2.281   7.323 -0.4451 -0.1185  0.1296
17909THY    CA238182   8.018   2.230   7.440 -0.4612  0.7564 -0.9863
17909THY    CP138183   7.883   2.288   7.479  0.3282 -0.3636  0.0667
17909THY    HP138184   7.859   2.374   7.416  1.0234 -1.0397 -0.2288
17909THY    CP238185   7.889   2.355   7.622  0.1817 -0.1339 -0.1759
17909THY    HP238186   7.949   2.293   7.689  0.0661  1.2095  1.1160
17909THY    HP338187   7.789   2.366   7.666  0.9944  1.4893  1.1139
17909THY    HP438188   7.941   2.452   7.617 -0.7570 -1.4042  0.2994
17909THY    CP338189   7.761   2.182   7.469 -0.1770 -0.2646 -1.0974
17909THY    HP538190   7.661   2.222   7.489 -0.0516 -0.6393 -0.5948
17909THY    HP638191   7.776   2.109   7.550 -0.8985 -0.2117 -1.1923
17909THY    HP738192   7.749   2.145   7.366 -1.9824 -0.3020 -0.5194
17909THY    CA338193   8.090   2.127   7.518 -0.2856 -0.1239  0.1668
17909THY    HA338194   8.032   2.080   7.597  0.3072 -0.2606 -0.8070
17909THY    CA438195   8.220   2.086   7.487 -0.2320  0.2883  0.6460
17909THY    HA438196   8.271   2.013   7.549  1.4194 -0.0139  1.4903
17909THY    CA538197   8.283   2.151   7.382  0.5522  0.4627 -0.4755
17909THY    CM138198   8.428   2.121   7.340 -0.4719  0.2954 -0.5160
17909THY    HM138199   8.458   2.200   7.271 -2.8552 -0.1905  0.0609
17909THY    HM238200   8.435   2.030   7.280 -0.8528 -1.5497  0.6111
17909THY    HM338201   8.498   2.111   7.423 -0.6305  0.4212 -0.5978
17909THY    CA638202   8.215   2.245   7.295 -0.2160 -0.1261 -0.3326
17909THY    HA638203   8.271   2.296   7.217 -0.1977 -0.3536 -0.6958
17910THY      O38204   4.960   7.106   4.547  0.2951  0.1191  0.1934
17910THY     HO38205   4.875   7.153   4.551 -0.1913  2.0063 -0.7816
17910THY    CA138206   5.012   7.155   4.428  0.7053 -0.7790  0.2075
17910THY    CA238207   5.144   7.139   4.399 -0.7758 -0.1911  0.0505
17910THY    CP138208   5.245   7.067   4.484 -0.0593 -0.2466  0.0726
17910THY    HP138209   5.197   7.021   4.571 -3.6174 -1.1728  1.7014
17910THY    CP238210   5.355   7.179   4.512  0.0003  0.4727  0.9717
17910THY    HP238211   5.309   7.278   4.515 -2.0812  0.7794  0.0594
17910THY    HP338212   5.442   7.183   4.446  0.4107  1.0858  4.2252
17910THY    HP438213   5.397   7.148   4.609 -1.3890  0.4035 -1.4121
17910THY    CP338214   5.294   6.946   4.397 -0.2551 -0.2686 -0.3213
17910THY    HP538215   5.374   6.905   4.459 -0.0974 -1.1046 -1.3245
17910THY    HP638216   5.330   6.974   4.297 -0.5485 -0.2443  0.1616
17910THY    HP738217   5.206   6.881   4.397 -1.6381 -0.4902  1.4460
17910THY    CA338218   5.202   7.202   4.282  0.2402  0.1423  0.3556
17910THY    HA338219   5.307   7.201   4.252  0.3528  0.2238 -2.9780
17910THY    CA438220   5.114   7.269   4.191  0.0972 -0.4926 -0.8120
17910THY    HA438221   5.148   7.321   4.102 -2.7469 -0.0771  2.1457
17910THY    CA538222   4.976   7.283   4.224  0.0098 -0.8193 -0.1614
17910THY    CM138223   4.887   7.369   4.144 -0.2861 -0.7553  0.4169
17910THY    HM138224   4.781   7.359   4.172 -0.3208 -1.1007 -0.2287
17910THY    HM238225   4.910   7.348   4.039 -0.0308 -0.6578  0.2044
17910THY    HM338226   4.916   7.473   4.162 -3.2747  1.0895  1.0625
17910THY    CA638227   4.925   7.220   4.338 -0.0399  0.4349 -0.1320
17910THY    HA638228   4.819   7.224   4.361  0.3908  2.4962  1.6651
17911THY      O38229   1.893   8.418   2.396 -0.1800  0.5019 -0.6676
17911THY     HO38230   1.975   8.458   2.363 -0.4979 -0.1791 -0.5656
17911THY    CA138231   1.800   8.438   2.314  0.7218  0.1921 -0.1520
17911THY    CA238232   1.667   8.460   2.357 -0.2901 -0.2219 -0.1731
17911THY    CP138233   1.631   8.424   2.497  0.5097 -1.0423  0.0026
17911THY    HP138234   1.701   8.349   2.536 -0.5361  0.6411 -0.1524
17911THY    CP238235   1.506   8.342   2.503  0.6173 -0.2564  0.2143
17911THY    HP238236   1.423   8.413   2.502  2.0110  0.6466  1.9354
17911THY    HP338237   1.502   8.295   2.602  2.1579  0.0908  0.7835
17911THY    HP438238   1.487   8.269   2.423 -0.3546  0.2496 -0.1127
17911THY    CP338239   1.616   8.548   2.581  0.4006  0.4222 -0.5684
17911THY    HP538240   1.700   8.617   2.569 -0.9586 -0.4344  1.0182
17911THY    HP638241   1.590   8.529   2.686 -1.6063 -0.0701 -0.7988
17911THY    HP738242   1.532   8.607   2.543  0.5459 -0.6380 -1.0314
17911THY    CA338243   1.572   8.512   2.264  0.9619 -0.0294  0.5205
17911THY    HA338244   1.470   8.533   2.294  1.0724  2.2080 -1.6516
17911THY    CA438245   1.605   8.527   2.131 -1.2964  0.6639  0.1503
17911THY    HA438246   1.528   8.558   2.061 -3.2172  1.5647 -2.2705
17911THY    CA538247   1.737   8.504   2.086  0.2237  0.0560  1.1209
17911THY    CM138248   1.787   8.531   1.939  0.0309 -0.1557  0.4527
17911THY    HM138249   1.710   8.487   1.875  2.3569 -2.3805 -0.6040
17911THY    HM238250   1.884   8.488   1.915 -0.2330 -1.9954  0.7962
17911THY    HM338251   1.786   8.639   1.922 -1.8799 -1.2808  0.2992
17911THY    CA638252   1.833   8.461   2.183 -0.9686  0.4892  0.3521
17911THY    HA638253   1.932   8.435   2.145 -1.2438  0.2860 -0.4323
17912THY      O38254   3.242   4.062   6.954 -0.0765  0.2837  0.5208
17912THY     HO38255   3.210   4.094   6.868  1.2874  0.0319  1.2996
17912THY    CA138256   3.291   4.170   7.005  0.6537 -0.0534  0.0572
17912THY    CA238257   3.299   4.180   7.152  0.5892 -0.0542 -0.1296
17912THY    CP138258   3.270   4.063   7.239  0.7064  0.1050  0.0759
17912THY    HP138259   3.208   3.990   7.186 -0.0213  0.3513  0.5034
17912THY    CP238260   3.196   4.092   7.372  0.4508  0.9222  0.2199
17912THY    HP238261   3.239   4.179   7.424  0.7076 -2.0514  1.9950
17912THY    HP338262   3.200   4.014   7.449 -0.9287 -0.4314 -1.2602
17912THY    HP438263   3.092   4.120   7.351  1.4335  0.4010  4.0851
17912THY    CP338264   3.397   3.984   7.273 -0.0326 -0.0307 -0.1510
17912THY    HP538265   3.447   4.024   7.362 -1.6026  1.8661 -2.1599
17912THY    HP638266   3.456   3.994   7.181 -0.7194 -0.3922  0.7249
17912THY    HP738267   3.361   3.882   7.289 -0.8099 -2.1073 -0.2529
17912THY    CA338268   3.328   4.313   7.209  0.5219  0.1897  0.0900
17912THY    HA338269   3.321   4.329   7.317 -1.4815  0.5336 -2.4709
17912THY    CA438270   3.340   4.425   7.125 -0.0808  0.0235  0.6350
17912THY    HA438271   3.358   4.525   7.165  1.7476  1.0573 -0.0737
17912THY    CA538272   3.338   4.411   6.982 -0.1285 -1.0149 -0.6439
17912THY    CM138273   3.344   4.540   6.900  0.3865  0.3130 -0.1481
17912THY    HM138274   3.446   4.578   6.903  0.5951  2.1574 -0.7493
17912THY    HM238275   3.291   4.617   6.956  1.9934  1.2863  0.2903
17912THY    HM338276   3.296   4.521   6.803 -1.4763  0.9766  0.8964
17912THY    CA638277   3.307   4.289   6.926  0.2622 -0.5919  0.8599
17912THY    HA638278   3.293   4.286   6.818  2.6089 -1.1203  3.5094
17913THY      O38279   7.870   2.497   5.774 -0.7712  0.0435  0.0242
17913THY     HO38280   7.800   2.564   5.772  1.7168  2.4692  2.9337
17913THY    CA138281   7.826   2.388   5.706  0.1580 -0.6465 -0.6374
17913THY    CA238282   7.923   2.293   5.671 -0.0157 -0.2595  0.0298
17913THY    CP138283   8.066   2.303   5.720 -0.6167 -0.0446 -0.3692
17913THY    HP138284   8.074   2.351   5.817 -2.0106 -0.2629  0.3345
17913THY    CP238285   8.145   2.365   5.601 -0.3920  0.5325  0.0898
17913THY    HP238286   8.098   2.457   5.563 -1.9704  1.7552 -0.1586
17913THY    HP338287   8.142   2.287   5.524  1.0283  1.3147 -0.7585
17913THY    HP438288   8.249   2.388   5.627  0.0547 -0.4048 -0.8099
17913THY    CP338289   8.129   2.163   5.740  1.1579 -0.5745 -0.5078
17913THY    HP538290   8.057   2.110   5.803 -0.0026 -1.0813  0.4095
17913THY    HP638291   8.217   2.172   5.805  1.3810 -1.0101  0.6778
17913THY    HP738292   8.149   2.108   5.647  0.3279 -2.2759  1.8803
17913THY    CA338293   7.876   2.183   5.597  0.5749  0.0396  1.3838
17913THY    HA338294   7.944   2.109   5.557  0.6004  0.4675  1.1690
17913THY    CA438295   7.739   2.185   5.556 -0.0725  0.0431  0.4687
17913THY    HA438296   7.718   2.096   5.496 -0.1696  0.1826  0.3964
17913THY    CA538297   7.651   2.279   5.593  1.0512 -0.0308 -0.2856
17913THY    CM138298   7.502   2.268   5.549  0.8751 -0.8931  0.2185
17913THY    HM138299   7.476   2.167   5.517  1.1264 -0.2670 -0.0516
17913THY    HM238300   7.490   2.346   5.473  0.1207  0.7839  1.8278
17913THY    HM338301   7.445   2.302   5.636 -1.5997 -2.5125  0.4403
17913THY    CA638302   7.694   2.383   5.678 -0.0813 -0.3531  0.1113
17913THY    HA638303   7.617   2.456   5.701 -1.7425  0.5570 -1.8496
17914THY      O38304   6.866   1.315   4.116  0.3820  0.7541  0.6860
17914THY     HO38305   6.885   1.259   4.039 -0.8099  1.0229 -0.1249
17914THY    CA138306   6.760   1.260   4.163 -0.2119 -0.3371  0.5843
17914THY    CA238307   6.690   1.308   4.275 -0.1468  0.2421 -0.0762
17914THY    CP138308   6.733   1.441   4.340  0.7296 -0.1743  0.2737
17914THY    HP138309   6.793   1.499   4.269 -0.4921 -1.6205 -0.1618
17914THY    CP238310   6.812   1.416   4.471  0.1945  0.2462  0.1590
17914THY    HP238311   6.828   1.514   4.516  0.1608 -0.7431  0.6291
17914THY    HP338312   6.909   1.368   4.451 -0.2427  0.6458 -0.9310
17914THY    HP438313   6.748   1.357   4.537 -0.5550 -1.5176 -1.0866
17914THY    CP338314   6.611   1.532   4.359 -0.0173  1.1064  0.2765
17914THY    HP538315   6.536   1.511   4.282  2.5897 -0.8826 -2.5450
17914THY    HP638316   6.647   1.634   4.376  2.3696  3.1877 -0.7992
17914THY    HP738317   6.570   1.493   4.453 -2.1459 -0.3059 -1.0641
17914THY    CA338318   6.581   1.240   4.329  0.5635  0.0655  0.0817
17914THY    HA338319   6.514   1.283   4.402  0.5873  1.0673 -1.4968
17914THY    CA438320   6.546   1.119   4.267  0.3050  0.1329  0.6217
17914THY    HA438321   6.455   1.071   4.301  0.3324 -1.3735 -0.5850
17914THY    CA538322   6.617   1.065   4.153 -0.7709 -0.2756 -0.5110
17914THY    CM138323   6.581   0.936   4.102  0.5147 -0.0208 -0.5615
17914THY    HM138324   6.603   0.848   4.165  1.1554 -1.9432 -1.8352
17914THY    HM238325   6.629   0.921   4.005  0.9396  0.2718 -1.1593
17914THY    HM338326   6.472   0.934   4.089  0.5204 -0.0932 -0.3972
17914THY    CA638327   6.719   1.146   4.099 -0.4524 -1.1518  0.3550
17914THY    HA638328   6.776   1.101   4.018  0.7857 -0.2793  0.3240
17915THY      O38329   3.697   1.899   5.353  0.0937 -0.5221 -0.4972
17915THY     HO38330   3.685   1.848   5.434  0.2035 -1.8075 -2.7119
17915THY    CA138331   3.597   1.993   5.346  0.0734 -0.8418 -0.2148
17915THY    CA238332   3.596   2.105   5.259  0.0333  0.0078 -0.3327
17915THY    CP138333   3.701   2.128   5.154  0.1021 -0.0767  0.0399
17915THY    HP138334   3.789   2.067   5.182 -0.3661  0.2112 -0.5170
17915THY    CP238335   3.759   2.274   5.146  0.4639  0.3091 -0.0408
17915THY    HP238336   3.696   2.343   5.087 -0.0874 -0.8377 -1.4735
17915THY    HP338337   3.847   2.261   5.082 -0.1998 -0.5921 -0.1753
17915THY    HP438338   3.787   2.322   5.240 -0.8633  0.4339  0.5551
17915THY    CP338339   3.644   2.068   5.020  0.1445 -0.7885 -0.0681
17915THY    HP538340   3.556   2.127   4.993  1.6601 -1.4248  2.0260
17915THY    HP638341   3.625   1.960   5.021  3.5202 -2.3495 -0.8073
17915THY    HP738342   3.724   2.089   4.948  2.5177  1.1437 -1.8782
17915THY    CA338343   3.495   2.206   5.269  0.2412 -0.5090  0.2836
17915THY    HA338344   3.488   2.275   5.186 -1.0100 -0.6251  0.0461
17915THY    CA438345   3.403   2.202   5.377  0.0527  0.2096 -0.5021
17915THY    HA438346   3.340   2.288   5.397  0.4065  0.2629 -0.2537
17915THY    CA538347   3.402   2.093   5.467 -0.3062  1.0386  0.0729
17915THY    CM138348   3.309   2.094   5.581 -0.3242 -0.5354  0.3722
17915THY    HM138349   3.291   1.998   5.632  2.3013  2.8624  1.5022
17915THY    HM238350   3.213   2.137   5.550 -0.1392  1.7467  2.6519
17915THY    HM338351   3.343   2.175   5.646 -0.9788 -1.0572  1.0853
17915THY    CA638352   3.500   1.990   5.449  0.2304 -0.1237  0.4677
17915THY    HA638353   3.503   1.914   5.526 -1.6380 -0.5670 -0.1121
17916THY      O38354   3.825   1.552   7.472  0.3011 -0.0609  0.1975
17916THY     HO38355   3.918   1.545   7.502  0.1451  0.2594 -0.7280
17916THY    CA138356   3.830   1.495   7.354  0.4154  0.5601  0.7278
17916THY    CA238357   3.726   1.508   7.263  0.9799 -0.2917  0.5713
17916THY    CP138358   3.597   1.582   7.294 -0.0300  0.1332 -0.3981
17916THY    HP138359   3.605   1.607   7.401 -0.7273 -0.3399  2.1745
17916THY    CP238360   3.473   1.497   7.268  0.6219  0.6109  0.7328
17916THY    HP238361   3.445   1.497   7.162  0.3184  0.6814 -0.2803
17916THY    HP338362   3.384   1.526   7.326 -0.9095 -0.7641 -0.9865
17916THY    HP438363   3.489   1.390   7.283 -3.1545 -1.2927 -0.2501
17916THY    CP338364   3.577   1.718   7.235 -0.1532 -0.2193  0.2726
17916THY    HP538365   3.655   1.788   7.267 -1.4360  0.2547  1.5377
17916THY    HP638366   3.480   1.760   7.263  0.8928  1.8321  1.5114
17916THY    HP738367   3.574   1.721   7.126  3.4899 -0.4510 -0.3103
17916THY    CA338368   3.732   1.442   7.135  0.2233 -0.2196  0.2620
17916THY    HA338369   3.648   1.439   7.066 -0.9237  1.1749 -0.4182
17916THY    CA438370   3.853   1.378   7.106  0.1351  0.0451  0.6551
17916THY    HA438371   3.864   1.322   7.013  0.4917  0.7245 -0.4411
17916THY    CA538372   3.962   1.374   7.196 -0.2106  0.0991  0.1861
17916THY    CM138373   4.087   1.292   7.162 -0.0150 -0.0253  0.4804
17916THY    HM138374   4.111   1.210   7.232  0.3281 -0.4289  0.2284
17916THY    HM238375   4.175   1.352   7.137  1.8649  0.5711 -1.8319
17916THY    HM338376   4.060   1.233   7.074 -1.4985  1.2541 -0.8379
17916THY    CA638377   3.950   1.428   7.319  0.0121 -0.0420 -0.2004
17916THY    HA638378   4.033   1.439   7.389  0.1141 -0.2091  0.0984
17917THY      O38379   3.139   6.758   7.035  0.2308  0.1196  0.7240
17917THY     HO38380   3.104   6.681   6.988 -4.0834  3.1974  0.4547
17917THY    CA138381   3.247   6.714   7.102 -0.1149  0.5478  0.6629
17917THY    CA238382   3.340   6.796   7.168  0.2672 -0.3056 -0.5882
17917THY    CP138383   3.327   6.947   7.185  0.2801  0.4946  0.0054
17917THY    HP138384   3.232   6.988   7.147  1.6619 -2.4354  0.7291
17917THY    CP238385   3.447   7.021   7.115 -0.1764  0.3334  0.3516
17917THY    HP238386   3.475   6.973   7.021  0.0584 -0.7187  2.4274
17917THY    HP338387   3.538   7.023   7.177 -0.7254  1.2177 -0.8064
17917THY    HP438388   3.413   7.122   7.089 -1.2579 -0.4686 -0.2047
17917THY    CP338389   3.328   6.977   7.336 -0.2626 -1.1918 -0.1124
17917THY    HP538390   3.320   7.085   7.356 -0.5075  1.0328 -0.5100
17917THY    HP638391   3.412   6.937   7.393 -3.4440  2.5553 -2.1481
17917THY    HP738392   3.243   6.936   7.392  1.0069  0.0498 -1.1355
17917THY    CA338393   3.455   6.731   7.218 -0.5332 -0.3224 -0.2830
17917THY    HA338394   3.535   6.782   7.272 -1.3485 -0.7578  1.5470
17917THY    CA438395   3.461   6.599   7.221  0.7621 -0.1688  0.1117
17917THY    HA438396   3.549   6.552   7.265  0.4679 -0.7316 -1.0034
17917THY    CA538397   3.367   6.517   7.166  0.1392  0.2631  0.3162
17917THY    CM138398   3.397   6.368   7.151  0.2716  0.1401  0.7185
17917THY    HM138399   3.501   6.339   7.171 -0.4069  1.4465 -0.9790
17917THY    HM238400   3.375   6.335   7.049  0.7903  0.1458  0.3571
17917THY    HM338401   3.340   6.299   7.214  0.2903 -2.0518 -1.4453
17917THY    CA638402   3.258   6.573   7.099  0.5945  0.1428  0.2515
17917THY    HA638403   3.178   6.514   7.054 -0.0189  2.1568 -0.5615
17918THY      O38404   2.539   1.464   4.295  0.0810  0.2755 -0.2050
17918THY     HO38405   2.481   1.542   4.292  1.0951 -2.5857  0.5894
17918THY    CA138406   2.473   1.370   4.369  0.3356 -0.1849  0.4163
17918THY    CA238407   2.535   1.249   4.416  0.2261 -0.8196  0.1337
17918THY    CP138408   2.678   1.191   4.367  0.2802 -0.2769 -0.1551
17918THY    HP138409   2.752   1.270   4.349  0.6887 -0.7495 -0.6381
17918THY    CP238410   2.657   1.126   4.231 -0.0500 -0.2314 -0.2321
17918THY    HP238411   2.629   1.208   4.163 -0.3961  2.1417  1.7590
17918THY    HP338412   2.573   1.056   4.232  0.2766 -0.4550 -0.6251
17918THY    HP438413   2.746   1.077   4.191 -0.8349  0.1525 -2.0518
17918THY    CP338414   2.738   1.080   4.450  0.0261 -0.2153  0.5469
17918THY    HP538415   2.774   1.113   4.549 -1.9455  0.6792  0.1544
17918THY    HP638416   2.832   1.043   4.407  2.1494  4.6043 -0.4748
17918THY    HP738417   2.676   0.990   4.462 -0.1227 -0.9875  0.5447
17918THY    CA338418   2.460   1.172   4.507 -0.0935  0.0446  0.5204
17918THY    HA338419   2.503   1.078   4.542 -2.1535  2.8165  0.4850
17918THY    CA438420   2.332   1.199   4.545 -0.7918 -0.3719  0.3701
17918THY    HA438421   2.281   1.129   4.609 -1.8153  0.6497  1.9971
17918THY    CA538422   2.269   1.308   4.487 -0.0549  0.3141 -0.3895
17918THY    CM138423   2.128   1.334   4.524 -0.6670 -0.7596 -0.4812
17918THY    HM138424   2.105   1.305   4.627  0.5250 -0.7714 -1.5312
17918THY    HM238425   2.065   1.267   4.463 -0.0213 -2.2228  0.2042
17918THY    HM338426   2.100   1.440   4.521  4.6430 -0.5960  1.1960
17918THY    CA638427   2.341   1.396   4.398  0.1751  0.0297 -0.1517
17918THY    HA638428   2.290   1.475   4.344 -0.0310 -0.0527 -0.3398
17919THY      O38429   1.382   0.431   2.131 -0.4891  0.0786 -0.3738
17919THY     HO38430   1.436   0.351   2.117  1.7939  0.8782  0.9255
17919THY    CA138431   1.481   0.528   2.141  0.5157  0.4310  0.7151
17919THY    CA238432   1.453   0.651   2.207 -0.7242  0.3253  0.6514
17919THY    CP138433   1.317   0.675   2.264  0.4039  0.6396 -0.4483
17919THY    HP138434   1.235   0.626   2.210  0.2026 -0.3956  0.9327
17919THY    CP238435   1.280   0.826   2.269 -0.3535 -0.4397  0.1325
17919THY    HP238436   1.311   0.884   2.181  1.8300  1.2304  1.6741
17919THY    HP338437   1.324   0.889   2.347  1.1067 -1.2435  0.1690
17919THY    HP438438   1.171   0.828   2.278 -0.4591 -1.0566 -1.4001
17919THY    CP338439   1.301   0.620   2.405  0.1882 -0.8361 -0.2830
17919THY    HP538440   1.238   0.531   2.409 -1.9292 -1.2763  1.1062
17919THY    HP638441   1.235   0.687   2.462 -0.1781 -2.8898  1.2194
17919THY    HP738442   1.398   0.598   2.450 -0.8161  0.5026 -2.2089
17919THY    CA338443   1.570   0.743   2.213  0.2222  0.7281 -0.1876
17919THY    HA338444   1.558   0.839   2.262 -1.2630  0.5591 -0.2638
17919THY    CA438445   1.692   0.711   2.150  0.2708  0.3211  0.2168
17919THY    HA438446   1.773   0.782   2.135  1.2022 -1.8030 -1.1831
17919THY    CA538447   1.712   0.585   2.097 -0.5258 -0.4392  0.3885
17919THY    CM138448   1.847   0.558   2.029  0.2942 -0.2142 -0.2759
17919THY    HM138449   1.872   0.660   1.998  1.8353 -0.4629 -0.7050
17919THY    HM238450   1.833   0.498   1.938  1.0293 -1.7110  1.6968
17919THY    HM338451   1.919   0.508   2.094  0.8834 -0.7308 -0.1183
17919THY    CA638452   1.612   0.491   2.097 -0.7437  0.5899 -0.2751
17919THY    HA638453   1.642   0.390   2.070  2.8920 -1.1617  1.0737
17920THY      O38454   4.790   7.154   7.705  0.3962  0.0845 -0.0233
17920THY     HO38455   4.815   7.105   7.786 -1.5689  0.8876  0.2009
17920THY    CA138456   4.877   7.254   7.692  0.0010 -0.7034 -0.3929
17920THY    CA238457   4.877   7.345   7.583  0.0951 -0.4144 -0.1300
17920THY    CP138458   4.768   7.325   7.476 -0.1906  0.9677 -0.1500
17920THY    HP138459   4.712   7.233   7.498  1.8125  1.2731 -1.3669
17920THY    CP238460   4.821   7.315   7.332  0.0356  0.2592  0.7609
17920THY    HP238461   4.884   7.225   7.332 -0.4815 -2.8621  0.2728
17920THY    HP338462   4.869   7.407   7.299  0.1507 -0.5006  0.4367
17920THY    HP438463   4.738   7.289   7.265  1.4080 -0.9501 -0.7230
17920THY    CP338464   4.674   7.444   7.483  0.5781 -0.5075 -0.3696
17920THY    HP538465   4.588   7.427   7.416  0.5928 -0.6841  0.2260
17920THY    HP638466   4.716   7.541   7.455 -3.0739  1.4426  2.0071
17920THY    HP738467   4.646   7.448   7.589  0.3013 -0.5829 -0.2577
17920THY    CA338468   4.967   7.452   7.587 -0.0700  0.3241  0.4023
17920THY    HA338469   4.964   7.521   7.503 -0.5527  0.0597  0.0715
17920THY    CA438470   5.070   7.453   7.678 -0.3520  0.9840 -0.2198
17920THY    HA438471   5.151   7.524   7.666 -0.3077 -1.0714 -0.5565
17920THY    CA538472   5.078   7.351   7.775 -0.7278 -0.1819 -0.1537
17920THY    CM138473   5.191   7.371   7.880 -0.0058 -0.1778  0.0488
17920THY    HM138474   5.178   7.314   7.973  1.0627 -0.4957 -0.7496
17920THY    HM238475   5.203   7.473   7.917 -1.1062 -0.9387  0.4737
17920THY    HM338476   5.284   7.328   7.840 -0.5844  0.2968 -1.7502
17920THY    CA638477   4.972   7.260   7.796  0.4834 -0.4828 -0.0074
17920THY    HA638478   4.977   7.195   7.883 -1.8153  0.7943  1.3689
17921THY      O38479   3.349   5.716   6.165 -0.0582  0.4522  0.2077
17921THY     HO38480   3.442   5.688   6.168 -0.0907 -0.6374 -0.0840
17921THY    CA138481   3.354   5.843   6.113 -0.4243 -0.0122  0.3360
17921THY    CA238482   3.247   5.936   6.116 -0.1522  0.4138  0.0836
17921THY    CP138483   3.110   5.892   6.160 -0.4330 -0.0981 -0.3810
17921THY    HP138484   3.087   5.789   6.130 -0.5826 -1.6589  0.0795
17921THY    CP238485   3.005   5.966   6.088 -0.2705  0.3144 -0.2590
17921THY    HP238486   2.909   5.917   6.109 -0.2567  0.4787 -0.2182
17921THY    HP338487   3.020   5.949   5.981 -1.5855  0.1714 -0.6624
17921THY    HP438488   2.993   6.072   6.111  0.3043  2.7131 -0.6588
17921THY    CP338489   3.080   5.902   6.306  0.2823 -0.5330 -0.0875
17921THY    HP538490   3.053   6.005   6.332 -0.8008 -0.2088 -0.4403
17921THY    HP638491   3.158   5.871   6.377  0.9079 -1.2708 -0.2212
17921THY    HP738492   2.990   5.842   6.326 -1.5243 -0.8776  2.3656
17921THY    CA338493   3.277   6.069   6.072 -0.2567  0.0017  0.0614
17921THY    HA338494   3.203   6.149   6.079  0.4702 -1.3088  0.8700
17921THY    CA438495   3.409   6.105   6.042  0.4091 -0.2239 -0.6294
17921THY    HA438496   3.442   6.206   6.017  1.5235 -0.0900 -0.9397
17921THY    CA538497   3.512   6.011   6.036  0.1358 -0.4971  0.7416
17921THY    CM138498   3.649   6.045   5.993  0.0178 -0.6563  0.1161
17921THY    HM138499   3.709   5.954   5.985 -0.6986  2.3028 -0.7316
17921THY    HM238500   3.687   6.117   6.066 -1.2342  0.5033 -0.3516
17921THY    HM338501   3.637   6.089   5.893 -0.3316  0.5606  2.9939
17921THY    CA638502   3.483   5.878   6.075 -1.1077  0.1712  0.0846
17921THY    HA638503   3.556   5.799   6.067 -1.7870  0.8331 -0.6250
17922THY      O38504   5.651   3.783   4.040 -0.1726  0.2931 -0.2636
17922THY     HO38505   5.738   3.824   4.051  0.7290 -2.9594 -0.9488
17922THY    CA138506   5.669   3.659   4.083 -0.5525 -0.0996  0.4869
17922THY    CA238507   5.564   3.567   4.109 -0.5575  0.9907  0.2930
17922THY    CP138508   5.419   3.625   4.099 -0.4544 -0.2120  0.1874
17922THY    HP138509   5.411   3.722   4.049 -2.6813 -1.3557 -0.5178
17922THY    CP238510   5.372   3.635   4.245 -0.4988 -0.0216  0.6457
17922THY    HP238511   5.399   3.736   4.277  1.7759 -1.4011  0.5533
17922THY    HP338512   5.414   3.554   4.305 -1.5471  0.3414  0.3605
17922THY    HP438513   5.264   3.618   4.243 -0.2575 -0.5777 -1.0723
17922THY    CP338514   5.331   3.532   4.011  1.0057 -0.4067  0.1202
17922THY    HP538515   5.394   3.505   3.926  1.8086 -0.0635  0.8343
17922THY    HP638516   5.238   3.578   3.975  0.8620 -0.8752 -0.5367
17922THY    HP738517   5.305   3.437   4.060 -0.6605 -0.3953  0.5404
17922THY    CA338518   5.590   3.437   4.139 -0.9971 -0.0517  0.1093
17922THY    HA338519   5.509   3.370   4.164  0.3632 -0.5932 -1.8044
17922THY    CA438520   5.723   3.393   4.149 -0.2418 -0.2419  0.2099
17922THY    HA438521   5.737   3.288   4.174 -0.7706  1.2192  0.4566
17922THY    CA538522   5.831   3.485   4.129  0.3270 -0.0347  0.2765
17922THY    CM138523   5.968   3.437   4.139 -1.1294 -0.2227  0.1944
17922THY    HM138524   6.028   3.519   4.180 -0.8691 -0.0422 -0.0854
17922THY    HM238525   6.017   3.416   4.043  2.2508  1.5833 -0.9175
17922THY    HM338526   5.985   3.358   4.212 -1.3291 -0.8106 -0.3997
17922THY    CA638527   5.809   3.618   4.098  0.5348  0.8830  0.0341
17922THY    HA638528   5.892   3.685   4.079  0.6412  1.2870  0.0172
17923THY      O38529   7.038   4.921   4.625 -0.3142  0.7719  0.3358
17923THY     HO38530   7.101   4.867   4.676 -0.8294 -2.0619 -3.3945
17923THY    CA138531   6.950   4.837   4.573  0.0604  0.0215  0.0721
17923THY    CA238532   6.844   4.884   4.490 -0.2587  0.3343  0.3463
17923THY    CP138533   6.825   5.033   4.468 -0.1042 -0.4529 -0.5670
17923THY    HP138534   6.880   5.095   4.539  1.8210 -0.5787 -2.0481
17923THY    CP238535   6.672   5.073   4.462  0.3648  0.1430 -0.0133
17923THY    HP238536   6.617   5.028   4.546 -3.4412 -1.3602  1.3957
17923THY    HP338537   6.618   5.041   4.372  0.9050 -0.0671 -0.3411
17923THY    HP438538   6.655   5.180   4.480  2.9151  1.3320  0.2550
17923THY    CP338539   6.889   5.070   4.333 -0.1874 -0.1077 -0.0390
17923THY    HP538540   6.997   5.049   4.328  0.5585  1.4395  2.8024
17923THY    HP638541   6.874   5.176   4.307 -1.8746 -1.4443 -0.5694
17923THY    HP738542   6.846   5.008   4.254  1.5149 -0.6315 -0.6259
17923THY    CA338543   6.759   4.777   4.436 -0.8638 -0.6998 -0.0480
17923THY    HA338544   6.683   4.816   4.369  0.8305 -2.3870  0.5140
17923THY    CA438545   6.783   4.643   4.456  0.4745  0.0561  0.6727
17923THY    HA438546   6.722   4.569   4.405 -0.0016 -0.4797  1.4191
17923THY    CA538547   6.886   4.605   4.545 -0.5162  0.1690  0.1346
17923THY    CM138548   6.908   4.454   4.575  1.0202 -0.0395  0.2819
17923THY    HM138549   7.004   4.414   4.540  0.6280 -0.4346 -0.3275
17923THY    HM238550   6.823   4.404   4.527  1.0254 -0.5532  0.7494
17923THY    HM338551   6.899   4.432   4.681  0.5409 -0.2822 -0.7220
17923THY    CA638552   6.968   4.702   4.600 -0.8565 -0.3797  0.6670
17923THY    HA638553   7.051   4.667   4.661 -2.5358 -0.0047 -3.1106
17924THY      O38554   2.025   3.312   3.892  0.6132  0.4850  0.0871
17924THY     HO38555   2.043   3.291   3.799 -2.1150 -0.5139  1.7467
17924THY    CA138556   1.929   3.221   3.920  0.0228 -0.1068 -0.3272
17924THY    CA238557   1.907   3.181   4.053  0.8970 -0.3226  0.7269
17924THY    CP138558   1.991   3.239   4.173  0.6710  0.1056  0.4933
17924THY    HP138559   2.073   3.297   4.129  0.8889 -1.7256 -1.1030
17924THY    CP238560   2.054   3.137   4.267 -0.0761 -0.7990  0.0194
17924THY    HP238561   2.108   3.067   4.203  0.5785 -1.8302  1.4110
17924THY    HP338562   1.983   3.076   4.324  1.3911 -0.7179 -1.7010
17924THY    HP438563   2.130   3.191   4.325  1.3239 -0.8436 -1.8047
17924THY    CP338564   1.897   3.334   4.263  0.4721  0.3849 -0.3319
17924THY    HP538565   1.859   3.414   4.197  1.4037  0.5461  0.2549
17924THY    HP638566   1.952   3.379   4.346 -1.3311  1.1438  0.6005
17924THY    HP738567   1.799   3.304   4.301 -0.4467  0.6008  2.5981
17924THY    CA338568   1.807   3.086   4.073 -0.2332  0.0734  0.1088
17924THY    HA338569   1.803   3.034   4.168 -0.1049  0.0231  0.0069
17924THY    CA438570   1.721   3.044   3.968 -0.1872 -0.3271  0.3659
17924THY    HA438571   1.638   2.976   3.987  0.8882  1.3056 -0.5698
17924THY    CA538572   1.751   3.084   3.837 -0.3204 -0.3698  0.4491
17924THY    CM138573   1.656   3.049   3.717 -0.3805 -0.3495  0.1807
17924THY    HM138574   1.599   2.956   3.735 -2.4252  0.2913  1.4850
17924THY    HM238575   1.719   3.027   3.630  0.6623  0.2858  0.6075
17924THY    HM338576   1.593   3.136   3.696 -1.8224  2.4853 -0.0648
17924THY    CA638577   1.854   3.178   3.816  0.2038 -0.5976  0.0318
17924THY    HA638578   1.875   3.218   3.717 -1.7222 -0.2653  2.0986
17925THY      O38579   8.102   0.816   3.568  0.2586 -0.4448  0.0987
17925THY     HO38580   8.028   0.876   3.546  0.4910 -2.8614 -0.4135
17925THY    CA138581   8.051   0.768   3.687  0.9245  0.1521  0.5885
17925THY    CA238582   8.111   0.661   3.756 -0.0345 -0.3919 -0.4338
17925THY    CP138583   8.240   0.592   3.697  1.1990 -0.2044 -0.5404
17925THY    HP138584   8.253   0.606   3.589  2.5492  0.1531  1.2632
17925THY    CP238585   8.225   0.444   3.709 -0.5403  0.2871  0.4777
17925THY    HP238586   8.298   0.397   3.641 -2.7789 -0.2241 -2.5961
17925THY    HP338587   8.129   0.398   3.680  0.5173  1.3588 -2.6970
17925THY    HP438588   8.248   0.414   3.812 -0.5929  0.4914  1.1158
17925THY    CP338589   8.360   0.656   3.764  0.0598 -0.2610 -0.1240
17925THY    HP538590   8.364   0.626   3.870  1.7309 -0.6677 -1.5517
17925THY    HP638591   8.361   0.764   3.748  1.7384 -1.4429 -0.2726
17925THY    HP738592   8.455   0.625   3.718  0.2007 -0.4972  0.6503
17925THY    CA338593   8.056   0.613   3.876 -0.2188  0.0058  0.4847
17925THY    HA338594   8.111   0.537   3.931 -1.7316  0.8019 -0.0617
17925THY    CA438595   7.938   0.675   3.919  0.1480  0.7041 -0.4585
17925THY    HA438596   7.891   0.636   4.008 -1.4887  0.7568  1.4954
17925THY    CA538597   7.875   0.778   3.847 -0.2415 -0.1157 -0.2548
17925THY    CM138598   7.750   0.848   3.902  0.5990 -0.6185  0.3112
17925THY    HM138599   7.683   0.771   3.942 -0.7929  1.0033  2.2545
17925THY    HM238600   7.708   0.911   3.823 -0.4101  0.8353  1.5611
17925THY    HM338601   7.793   0.921   3.971 -0.0276 -0.0936  0.1965
17925THY    CA638602   7.934   0.825   3.728  0.0090 -0.3395 -0.5082
17925THY    HA638603   7.885   0.894   3.659 -0.5564  0.9464  0.4040
17926THY      O38604   4.796   3.946   2.301  0.2161 -0.0438 -0.4801
17926THY     HO38605   4.890   3.949   2.327  0.5431 -1.2320  1.7729
17926THY    CA138606   4.729   3.861   2.374  0.0437 -0.3963  1.1137
17926THY    CA238607   4.596   3.813   2.352 -0.8053 -0.1238 -0.2008
17926THY    CP138608   4.537   3.864   2.216  1.1797  0.4741  0.4304
17926THY    HP138609   4.615   3.903   2.150 -0.8369 -0.7133  2.6963
17926THY    CP238610   4.438   3.976   2.240 -0.3620 -0.3582 -0.4817
17926THY    HP238611   4.339   3.940   2.271  0.0694 -0.3801 -1.7276
17926THY    HP338612   4.439   4.037   2.149  0.2945  0.3044  0.5216
17926THY    HP438613   4.468   4.026   2.332 -0.7299 -0.6512  0.2983
17926THY    CP338614   4.471   3.752   2.134 -0.5184 -0.1050  0.1505
17926THY    HP538615   4.380   3.708   2.176  0.0004 -0.0956 -0.9602
17926THY    HP638616   4.541   3.668   2.127 -0.0508 -1.1595  0.6113
17926THY    HP738617   4.451   3.790   2.033 -2.4112  0.9880  2.3260
17926THY    CA338618   4.537   3.722   2.437  0.2087  0.1613 -0.3181
17926THY    HA338619   4.431   3.702   2.419 -1.3591  2.8894  4.0830
17926THY    CA438620   4.606   3.691   2.561 -0.0014 -0.1813 -0.2722
17926THY    HA438621   4.558   3.630   2.636 -1.8230 -1.1996 -0.1705
17926THY    CA538622   4.733   3.737   2.586  0.7884 -0.8154 -0.5548
17926THY    CM138623   4.811   3.696   2.710 -0.4231  0.3223  0.3294
17926THY    HM138624   4.771   3.755   2.794  3.3490  0.9246  2.3532
17926THY    HM238625   4.914   3.733   2.705 -0.0914  1.1982 -0.4290
17926THY    HM338626   4.795   3.592   2.740 -2.6638  0.8179  0.7647
17926THY    CA638627   4.791   3.822   2.493  0.3128  0.0727 -0.1563
17926THY    HA638628   4.888   3.862   2.522 -0.5200  0.5933  1.6220
17927THY      O38629   3.946   1.870   5.698  0.8478 -0.9292  0.1995
17927THY     HO38630   3.990   1.810   5.760  0.7527 -0.8017  0.2591
17927THY    CA138631   4.013   1.989   5.703  0.0635  0.8024 -0.3367
17927THY    CA238632   3.943   2.106   5.691 -0.4188  0.1290 -0.1844
17927THY    CP138633   3.799   2.109   5.653 -0.2636 -0.3690 -0.5078
17927THY    HP138634   3.767   2.008   5.625  0.2430 -3.5061  0.0881
17927THY    CP238635   3.761   2.202   5.532 -0.2386 -0.6040 -0.2748
17927THY    HP238636   3.817   2.295   5.545 -0.4157 -3.4608  0.3104
17927THY    HP338637   3.652   2.220   5.533 -0.1797  1.2267  0.1735
17927THY    HP438638   3.791   2.148   5.442 -1.6260 -1.0639 -0.3420
17927THY    CP338639   3.698   2.150   5.759 -0.6197 -0.3193  0.0397
17927THY    HP538640   3.713   2.086   5.847 -1.0919  0.6358  1.1823
17927THY    HP638641   3.594   2.138   5.728 -0.4351 -1.2325  0.7291
17927THY    HP738642   3.705   2.251   5.801 -2.3738  1.1952 -0.4082
17927THY    CA338643   4.010   2.226   5.719  0.1431 -0.3905  0.1392
17927THY    HA338644   3.955   2.319   5.709  0.0178 -0.4745  0.0573
17927THY    CA438645   4.140   2.225   5.750 -0.5808 -0.0528 -0.0036
17927THY    HA438646   4.200   2.313   5.774  0.0592  1.1241 -0.7237
17927THY    CA538647   4.217   2.104   5.745 -0.0638  0.5594  0.2832
17927THY    CM138648   4.366   2.109   5.759 -0.7740 -0.3674  1.1164
17927THY    HM138649   4.404   2.038   5.834 -3.4296  1.5627  1.5929
17927THY    HM238650   4.392   2.209   5.795 -1.2189 -1.8643  1.8015
17927THY    HM338651   4.415   2.099   5.661  0.6397  0.4615 -0.7481
17927THY    CA638652   4.151   1.982   5.731  1.4713 -0.1048  0.0976
17927THY    HA638653   4.202   1.886   5.734  0.6252 -0.8181 -0.3908
17928THY      O38654   1.981   1.361   2.525 -0.2741  0.3150  0.2295
17928THY     HO38655   2.000   1.396   2.436  0.8792 -0.1566 -1.4240
17928THY    CA138656   1.940   1.237   2.505  0.0615 -0.0697 -0.8566
17928THY    CA238657   1.828   1.185   2.574  0.0619 -0.0957 -0.3545
17928THY    CP138658   1.764   1.259   2.694  0.1581 -0.2524 -0.4181
17928THY    HP138659   1.763   1.367   2.675  3.2389 -0.3187 -0.3138
17928THY    CP238660   1.857   1.237   2.816  0.1562 -0.1820 -0.1309
17928THY    HP238661   1.864   1.133   2.850  0.3439 -1.7361 -0.6500
17928THY    HP338662   1.833   1.301   2.902 -1.3245 -0.2445 -0.5751
17928THY    HP438663   1.956   1.268   2.782 -0.5296 -1.3563  0.8795
17928THY    CP338664   1.618   1.217   2.739 -0.1955 -0.1104  0.7216
17928THY    HP538665   1.613   1.113   2.774 -0.8993 -0.7764  0.5246
17928THY    HP638666   1.542   1.227   2.661 -3.4156  1.9409 -3.8619
17928THY    HP738667   1.582   1.274   2.826  0.1167  0.5615 -0.0786
17928THY    CA338668   1.767   1.073   2.530 -0.5845  0.0977  0.1968
17928THY    HA338669   1.677   1.036   2.578 -1.8757 -1.9786  0.5067
17928THY    CA438670   1.819   1.012   2.421 -0.6822  0.0952  0.6613
17928THY    HA438671   1.780   0.919   2.381 -0.7622  1.4094  0.1146
17928THY    CA538672   1.941   1.046   2.357 -0.2965  0.0673 -0.8651
17928THY    CM138673   1.998   0.974   2.233  0.6882 -0.0797  0.1212
17928THY    HM138674   1.979   0.866   2.241 -0.5649  0.4988  0.3644
17928THY    HM238675   2.103   1.005   2.226  0.3820 -0.4445  1.1268
17928THY    HM338676   1.967   1.010   2.134  1.2564  0.5963  2.7056
17928THY    CA638677   1.992   1.170   2.401 -0.3210  0.3660 -0.6459
17928THY    HA638678   2.082   1.200   2.349  0.0409  1.4906  0.2673
17929THY      O38679   4.651   6.342   5.091 -0.8317 -0.4376 -0.7087
17929THY     HO38680   4.607   6.421   5.127  0.7223 -0.2520  0.1142
17929THY    CA138681   4.772   6.331   5.149 -0.5832  1.0331 -0.1689
17929THY    CA238682   4.855   6.226   5.102 -0.1475  0.3611  0.3698
17929THY    CP138683   4.805   6.132   4.995 -0.3935  1.1184 -0.0177
17929THY    HP138684   4.704   6.152   4.960 -0.0347 -1.3583 -1.9800
17929THY    CP238685   4.808   5.989   5.041  1.0939 -0.9511 -0.1774
17929THY    HP238686   4.728   5.959   5.110  0.9983 -1.7399 -1.8676
17929THY    HP338687   4.910   5.966   5.075  0.5221  0.1312 -1.2162
17929THY    HP438688   4.793   5.920   4.956 -2.3568 -2.0483  1.6793
17929THY    CP338689   4.898   6.162   4.872 -0.0246  0.2247  0.3125
17929THY    HP538690   4.859   6.113   4.782 -0.0563  0.3394  0.1265
17929THY    HP638691   4.997   6.117   4.883  1.0050 -1.9771  1.8550
17929THY    HP738692   4.901   6.267   4.839  0.2960 -0.2968  0.1449
17929THY    CA338693   4.992   6.219   5.151  0.4376  0.2024  0.0986
17929THY    HA338694   5.057   6.139   5.117  0.8110 -1.1232  0.9342
17929THY    CA438695   5.036   6.319   5.237 -0.0208  0.5825  0.6591
17929THY    HA438696   5.137   6.318   5.278 -0.5705  2.0874 -1.6183
17929THY    CA538697   4.952   6.425   5.277  0.0551 -0.2540  0.0779
17929THY    CM138698   4.996   6.527   5.373 -0.5275 -0.3280  0.0311
17929THY    HM138699   4.946   6.517   5.470 -0.9947 -0.5352  0.2869
17929THY    HM238700   4.968   6.624   5.329 -3.4804 -1.2545 -1.1379
17929THY    HM338701   5.104   6.531   5.390 -0.4649 -0.2118 -1.6651
17929THY    CA638702   4.818   6.426   5.241  0.0969  1.0639  0.8096
17929THY    HA638703   4.743   6.493   5.283 -0.7367  0.5825  0.1889
17930THY      O38704   7.395   5.367   4.767 -0.8911  0.2345 -0.3943
17930THY     HO38705   7.346   5.429   4.709  1.3544 -1.2079  0.1361
17930THY    CA138706   7.367   5.404   4.891  1.6701 -1.2929  1.3066
17930THY    CA238707   7.463   5.374   4.992  0.0892 -0.3538  0.1601
17930THY    CP138708   7.601   5.299   4.966  0.0613 -0.7950 -0.5868
17930THY    HP138709   7.570   5.219   4.898  0.5068 -0.0492 -1.4111
17930THY    CP238710   7.669   5.237   5.090 -0.5929 -0.2215  0.1421
17930THY    HP238711   7.677   5.304   5.177  3.0429 -0.2501 -0.0641
17930THY    HP338712   7.774   5.216   5.068 -0.0208  0.8775  1.6185
17930THY    HP438713   7.617   5.146   5.122 -0.9275  1.1341  0.7843
17930THY    CP338714   7.709   5.397   4.904  0.3247  0.0166 -0.0160
17930THY    HP538715   7.753   5.453   4.987 -0.7121 -0.7674  2.0448
17930THY    HP638716   7.668   5.457   4.823 -0.5050  1.4217  1.3766
17930THY    HP738717   7.782   5.327   4.862 -0.7734 -0.9359 -0.6390
17930THY    CA338718   7.429   5.429   5.120  0.1915  0.4007  0.3331
17930THY    HA338719   7.500   5.425   5.202 -1.6415  2.2004  2.1918
17930THY    CA438720   7.311   5.499   5.134  0.5048 -0.6680  0.1432
17930THY    HA438721   7.289   5.550   5.227  0.1661  0.0686 -1.2824
17930THY    CA538722   7.218   5.510   5.032 -0.1254 -0.4245  0.6627
17930THY    CM138723   7.086   5.591   5.039  0.2886 -0.0532  0.4614
17930THY    HM138724   7.028   5.555   4.954 -2.5775  1.4884  1.1374
17930THY    HM238725   7.100   5.700   5.046 -0.1542  1.6664  0.4334
17930THY    HM338726   7.029   5.563   5.129 -0.2838 -0.6163 -0.2226
17930THY    CA638727   7.247   5.466   4.904  0.0526 -0.0349 -0.8706
17930THY    HA638728   7.174   5.478   4.824 -0.3280  0.4966  0.4950
17931THY      O38729   4.369   8.352   5.034 -0.1220  0.1884  0.4279
17931THY     HO38730   4.413   8.437   5.018 -0.3436 -1.5312  0.2586
17931THY    CA138731   4.267   8.353   4.944  0.1106 -0.0897 -0.4616
17931THY    CA238732   4.143   8.301   4.978  0.2359 -0.2414  0.6852
17931THY    CP138733   4.112   8.228   5.116 -0.7564 -0.0182 -0.1693
17931THY    HP138734   4.199   8.250   5.178 -1.5924  0.5637  1.7076
17931THY    CP238735   4.101   8.071   5.106 -1.1634  0.5201 -0.1325
17931THY    HP238736   4.043   8.042   5.194  0.3611  1.1082 -1.5152
17931THY    HP338737   4.193   8.014   5.117 -1.2403  0.8161 -0.2007
17931THY    HP438738   4.046   8.034   5.019 -0.4751  0.6212 -1.4464
17931THY    CP338739   3.983   8.285   5.182  0.1711 -1.0600 -0.5415
17931THY    HP538740   3.888   8.262   5.133 -0.2244 -0.0386 -1.1553
17931THY    HP638741   3.983   8.393   5.197  0.5641 -1.2203 -0.5223
17931THY    HP738742   3.975   8.235   5.280 -1.8543 -1.0828 -0.3677
17931THY    CA338743   4.044   8.305   4.883 -0.2004 -0.0362  0.7645
17931THY    HA338744   3.949   8.254   4.897  0.3712 -0.9414 -0.5884
17931THY    CA438745   4.078   8.352   4.757 -0.7670  0.0888  0.1604
17931THY    HA438746   4.013   8.349   4.670 -2.1631  0.9810  2.0792
17931THY    CA538747   4.195   8.414   4.724  0.2042 -0.1306 -0.0738
17931THY    CM138748   4.216   8.480   4.586  0.2198  0.5470  0.5562
17931THY    HM138749   4.248   8.583   4.602 -2.5256  0.0368  1.5831
17931THY    HM238750   4.127   8.480   4.521  0.0477  0.7733  1.3510
17931THY    HM338751   4.300   8.427   4.540  2.2318  1.3856  2.8722
17931THY    CA638752   4.288   8.424   4.822 -0.2396 -0.6066  0.5440
17931THY    HA638753   4.379   8.481   4.804  1.0078  1.0714 -0.8064
17932THY      O38754   0.538   2.400   3.863 -0.3484 -0.1550  0.0680
17932THY     HO38755   0.628   2.387   3.828  0.0374 -0.0645  2.1865
17932THY    CA138756   0.456   2.427   3.762 -0.1050 -0.4180  0.0178
17932THY    CA238757   0.312   2.417   3.771  0.0364 -0.8285 -0.2510
17932THY    CP138758   0.255   2.364   3.896  1.1193  0.8259  0.5405
17932THY    HP138759   0.317   2.280   3.928  1.1548  0.9448  0.6114
17932THY    CP238760   0.116   2.302   3.893  0.1212 -0.1885 -0.2572
17932THY    HP238761   0.114   2.226   3.972 -3.4257 -0.0683 -0.1936
17932THY    HP338762   0.102   2.243   3.801  0.6380  0.7797 -1.9631
17932THY    HP438763   0.038   2.374   3.919 -0.3450  0.4666 -0.9809
17932THY    CP338764   0.264   2.458   4.010 -0.4751  0.2538  0.0881
17932THY    HP538765   0.355   2.519   4.013  0.4494 -0.3736 -1.2058
17932THY    HP638766   0.257   2.399   4.102 -1.1424  0.9107  1.1422
17932THY    HP738767   0.178   2.526   4.018 -0.5493 -0.8053  0.1398
17932THY    CA338768   0.238   2.457   3.664  0.5204  0.1140 -0.4042
17932THY    HA338769   0.131   2.450   3.679  0.2769 -1.4307 -0.3264
17932THY    CA438770   0.293   2.511   3.550  0.4492  0.7032 -0.0261
17932THY    HA438771   0.238   2.567   3.474  0.4032  0.9455  0.2576
17932THY    CA538772   0.432   2.508   3.541 -0.1270  0.2701 -0.2000
17932THY    CM138773   0.490   2.558   3.408  0.5551 -1.0108  0.1413
17932THY    HM138774   0.426   2.556   3.319  0.2915 -0.8560  1.0456
17932THY    HM238775   0.581   2.499   3.391 -0.0775 -0.4765 -1.0236
17932THY    HM338776   0.532   2.657   3.431  0.6948 -0.3451 -0.0645
17932THY    CA638777   0.515   2.474   3.648  0.2516 -0.1743  0.2578
17932THY    HA638778   0.620   2.493   3.628  1.0676  1.1231 -2.3923
17933THY      O38779   7.812   6.429   4.940  0.1703  0.1188  0.1796
17933THY     HO38780   7.821   6.487   4.863  0.1877 -0.0787 -0.0822
17933THY    CA138781   7.792   6.306   4.888 -0.3671 -0.9325  0.3258
17933THY    CA238782   7.856   6.187   4.939  0.2835 -0.7203  0.2788
17933THY    CP138783   7.942   6.187   5.072  0.2681  0.7169 -0.6644
17933THY    HP138784   7.920   6.278   5.128 -0.4056 -0.3642 -0.1407
17933THY    CP238785   8.092   6.192   5.046 -0.4388  0.2953 -0.4994
17933THY    HP238786   8.153   6.194   5.137 -2.7864  1.9666  0.7508
17933THY    HP338787   8.114   6.287   4.994 -1.7178 -0.8211 -0.7709
17933THY    HP438788   8.129   6.113   4.980  0.5998 -0.5433  0.6460
17933THY    CP338789   7.909   6.066   5.166  0.2410 -0.5554 -0.2489
17933THY    HP538790   7.949   5.977   5.116 -0.5042  1.5810 -1.8724
17933THY    HP638791   7.799   6.066   5.168  0.2555  0.2312 -0.1869
17933THY    HP738792   7.946   6.079   5.268 -0.2403 -0.3358 -0.5708
17933THY    CA338793   7.836   6.060   4.869 -0.2489 -1.3873  0.3970
17933THY    HA338794   7.899   5.976   4.896  2.1438 -1.1561  2.1702
17933THY    CA438795   7.752   6.055   4.755  0.9373  0.1732  0.6647
17933THY    HA438796   7.736   5.961   4.702  1.6637 -0.2470  0.7793
17933THY    CA538797   7.690   6.173   4.713  0.7081 -0.5624  0.4012
17933THY    CM138798   7.610   6.161   4.585 -0.3227 -0.8502  0.7436
17933THY    HM138799   7.507   6.194   4.599 -0.6755 -2.8330  0.5934
17933THY    HM238800   7.582   6.058   4.560 -0.9010 -2.0946  1.1784
17933THY    HM338801   7.645   6.225   4.503 -0.8700 -1.8220 -0.1793
17933THY    CA638802   7.708   6.292   4.778 -0.4824  0.0264 -1.0300
17933THY    HA638803   7.648   6.378   4.752  0.3313 -1.0123 -0.7560
17934THY      O38804   5.640   4.578   4.895  0.4786 -0.0920  0.0345
17934THY     HO38805   5.615   4.669   4.873  1.4229  1.7714  0.7931
17934THY    CA138806   5.639   4.589   5.032 -0.0978 -0.1403  0.5978
17934THY    CA238807   5.643   4.477   5.116  0.6996  0.0567  0.4827
17934THY    CP138808   5.610   4.334   5.054  0.0995  0.4573 -0.0127
17934THY    HP138809   5.664   4.331   4.958 -0.7122 -0.1377  2.3269
17934THY    CP238810   5.465   4.317   5.016  0.3758 -0.3993  0.7517
17934THY    HP238811   5.436   4.395   4.944  0.3381  0.3826  1.4688
17934THY    HP338812   5.409   4.335   5.108 -0.3341 -0.4201 -1.0919
17934THY    HP438813   5.451   4.218   4.969  0.9133 -1.1699  1.0273
17934THY    CP338814   5.660   4.219   5.141  0.1661 -0.0541  0.4210
17934THY    HP538815   5.596   4.225   5.229  1.8219  1.1645  1.1223
17934THY    HP638816   5.760   4.233   5.184 -0.3006  0.8339  1.0813
17934THY    HP738817   5.643   4.118   5.102  0.4776 -0.5524  0.5556
17934THY    CA338818   5.660   4.500   5.256 -0.3337  0.0832  0.0528
17934THY    HA338819   5.661   4.415   5.324 -0.8517 -1.3267 -1.1325
17934THY    CA438820   5.661   4.630   5.308  0.3152 -0.3635 -0.2967
17934THY    HA438821   5.671   4.652   5.414 -0.9407 -0.1131 -0.8059
17934THY    CA538822   5.655   4.740   5.217 -0.1028 -0.5149 -0.5688
17934THY    CM138823   5.656   4.883   5.272 -0.3240  0.5885  0.3394
17934THY    HM138824   5.635   4.955   5.192  2.3455 -1.6818 -1.1818
17934THY    HM238825   5.752   4.894   5.324 -0.5711  1.0772  0.2169
17934THY    HM338826   5.572   4.881   5.342 -1.3640 -0.6132  0.4433
17934THY    CA638827   5.646   4.716   5.081  0.6571  0.4272  0.1053
17934THY    HA638828   5.634   4.801   5.014 -3.5044  0.0622 -0.5614
17935THY      O38829   7.707   2.702   6.012 -0.5264  0.5336 -1.0655
17935THY     HO38830   7.680   2.642   6.084 -0.1154  0.8039 -0.9323
17935THY    CA138831   7.733   2.804   6.086 -0.2201 -0.1066 -0.1273
17935THY    CA238832   7.839   2.892   6.061  0.0298 -0.1097  0.4552
17935THY    CP138833   7.937   2.879   5.945  0.1754  0.2749  0.5123
17935THY    HP138834   7.917   2.791   5.884  0.7774  1.1094 -0.2212
17935THY    CP238835   8.089   2.872   5.982 -1.1436  0.4585  0.5645
17935THY    HP238836   8.110   2.788   6.050 -3.5013 -0.0136 -0.4765
17935THY    HP338837   8.127   2.966   6.024 -0.2906 -0.8733  0.8462
17935THY    HP438838   8.148   2.845   5.894  0.6766  1.2283  1.8609
17935THY    CP338839   7.917   2.995   5.843  0.2283 -0.4058  0.6683
17935THY    HP538840   7.973   3.079   5.884  3.1154  1.1961 -1.8276
17935THY    HP638841   7.814   3.032   5.833  0.9537 -2.8769  2.2804
17935THY    HP738842   7.938   2.968   5.739  0.6856 -0.1801  0.1395
17935THY    CA338843   7.860   2.995   6.161 -0.0358 -0.2682  0.0256
17935THY    HA338844   7.953   3.052   6.163  0.4020  2.2805 -0.6435
17935THY    CA438845   7.763   3.009   6.266 -0.1675 -0.7295  0.6534
17935THY    HA438846   7.788   3.087   6.337  2.2976  1.9076 -2.2493
17935THY    CA538847   7.660   2.922   6.290  1.0335 -0.2556 -0.0736
17935THY    CM138848   7.566   2.948   6.404 -0.5740  1.0163  0.3092
17935THY    HM138849   7.627   2.943   6.494  0.4963  0.2803 -0.4519
17935THY    HM238850   7.488   2.873   6.420 -1.4805  2.1487  1.4486
17935THY    HM338851   7.536   3.053   6.397  1.6695  0.2831  0.9580
17935THY    CA638852   7.642   2.821   6.194 -0.5021 -0.1457 -0.1643
17935THY    HA638853   7.558   2.752   6.205 -0.8515 -1.2406  0.0631
17936THY      O38854   1.284   1.440   6.440  0.2089 -0.2004 -0.3748
17936THY     HO38855   1.344   1.499   6.489  1.2590 -0.9503 -0.7863
17936THY    CA138856   1.354   1.355   6.367 -0.2911  0.2344  0.3654
17936THY    CA238857   1.301   1.310   6.251  0.5187  0.3699  0.6737
17936THY    CP138858   1.163   1.354   6.190 -0.5137 -0.1455  0.0282
17936THY    HP138859   1.108   1.416   6.261  2.5751  2.6034 -0.1202
17936THY    CP238860   1.076   1.235   6.141  0.5397 -0.6585  0.4854
17936THY    HP238861   1.048   1.170   6.225  1.1143  0.0718  1.1718
17936THY    HP338862   1.121   1.175   6.060  0.8954 -0.9322  1.1087
17936THY    HP438863   0.979   1.267   6.104 -0.4547 -0.7960 -2.3767
17936THY    CP338864   1.180   1.466   6.072 -0.1767  0.6071 -0.0235
17936THY    HP538865   1.225   1.562   6.099 -1.5011  2.5647  0.1098
17936THY    HP638866   1.083   1.499   6.032  0.0027 -0.2045 -0.4581
17936THY    HP738867   1.237   1.424   5.988 -0.4670  0.6456 -0.5035
17936THY    CA338868   1.379   1.220   6.173  0.1822  0.0741 -0.4485
17936THY    HA338869   1.332   1.175   6.086 -2.0073  1.2556 -0.5776
17936THY    CA438870   1.507   1.179   6.215 -0.1687  0.6200  0.4771
17936THY    HA438871   1.565   1.106   6.160  1.9052  2.5653  0.5553
17936THY    CA538872   1.562   1.228   6.326  0.2468  0.1539  0.1396
17936THY    CM138873   1.693   1.171   6.373  0.0005 -0.2014  0.0284
17936THY    HM138874   1.739   1.114   6.291  2.0540 -0.0189  1.3264
17936THY    HM238875   1.675   1.106   6.459  0.4039 -1.1404 -1.3746
17936THY    HM338876   1.771   1.245   6.391  0.3215 -1.0261 -0.0913
17936THY    CA638877   1.476   1.299   6.415  0.4053  0.2091  0.0459
17936THY    HA638878   1.514   1.335   6.510  0.3777 -0.8747  3.2430
17937THY      O38879   8.187   8.992   5.449 -0.2254  0.4495  0.0937
17937THY     HO38880   8.136   8.926   5.499 -1.0390 -0.5499 -0.0608
17937THY    CA138881   8.295   9.029   5.528  0.2582 -1.0060 -0.4391
17937THY    CA238882   8.388   9.129   5.482  0.0323 -0.0776  0.9962
17937THY    CP138883   8.385   9.173   5.339 -0.8304 -0.1457  0.3813
17937THY    HP138884   8.283   9.156   5.302 -0.8615 -0.1999  0.6721
17937THY    CP238885   8.476   9.090   5.254 -0.1546 -0.2062 -0.4345
17937THY    HP238886   8.573   9.106   5.303  0.2313 -1.1024  0.0711
17937THY    HP338887   8.477   9.139   5.156  1.5705  1.2279  2.6984
17937THY    HP438888   8.435   8.988   5.262  1.1055  0.0158 -0.9490
17937THY    CP338889   8.408   9.324   5.318 -0.4680 -0.3208  0.1841
17937THY    HP538890   8.510   9.352   5.348 -1.1341  1.6122  0.6561
17937THY    HP638891   8.336   9.385   5.373 -0.8538  1.0870 -1.4877
17937THY    HP738892   8.403   9.355   5.212 -1.1545 -0.4691 -0.4159
17937THY    CA338893   8.493   9.165   5.565 -0.4614  0.1595 -0.2502
17937THY    HA338894   8.571   9.226   5.520 -0.3643 -0.6211 -0.9297
17937THY    CA438895   8.503   9.125   5.703  0.0664  0.7942  0.6368
17937THY    HA438896   8.588   9.154   5.765  0.4843 -0.5267  2.4718
17937THY    CA538897   8.401   9.042   5.750 -0.0651  0.0793 -0.2959
17937THY    CM138898   8.410   8.994   5.893  0.2956  0.6284 -0.8502
17937THY    HM138899   8.470   8.903   5.893  0.6684 -0.9361 -0.6314
17937THY    HM238900   8.311   8.991   5.940  1.8560  4.2453 -0.4587
17937THY    HM338901   8.463   9.067   5.956 -2.2786  1.1140  0.7484
17937THY    CA638902   8.299   8.992   5.668  0.1173 -0.2776 -0.6132
17937THY    HA638903   8.223   8.924   5.706 -1.1795  2.8833  2.3105
17938THY      O38904   2.897   7.778   3.067 -0.1483  0.0551  0.2082
17938THY     HO38905   2.858   7.689   3.070 -0.7894  1.7098  0.4949
17938THY    CA138906   2.859   7.830   3.187  0.5359 -0.1244  0.4226
17938THY    CA238907   2.884   7.967   3.213 -0.5398 -0.2905 -0.0238
17938THY    CP138908   2.972   8.052   3.119 -0.1411  0.6242 -0.4467
17938THY    HP138909   2.966   8.009   3.018 -0.9353  0.4258  0.0948
17938THY    CP238910   3.122   8.054   3.160 -0.3575 -0.2733 -0.1854
17938THY    HP238911   3.185   8.104   3.085  1.8527 -0.1709 -2.6180
17938THY    HP338912   3.170   7.961   3.193 -0.5933  0.3303 -0.0986
17938THY    HP438913   3.132   8.118   3.249  0.3878 -0.8771  0.5649
17938THY    CP338914   2.921   8.198   3.102  0.3839  0.0602 -0.7215
17938THY    HP538915   2.820   8.195   3.058 -0.2995  1.5970 -1.7042
17938THY    HP638916   2.988   8.244   3.029 -0.6694 -0.2885  0.3110
17938THY    HP738917   2.920   8.248   3.200 -0.5984 -0.3884  0.1734
17938THY    CA338918   2.847   8.008   3.336  0.4153 -0.0959 -0.1236
17938THY    HA338919   2.846   8.114   3.363 -1.1240 -2.2219  0.4662
17938THY    CA438920   2.777   7.922   3.427  0.0944 -0.0681 -0.3036
17938THY    HA438921   2.739   7.969   3.518 -0.3777 -0.7901  0.7506
17938THY    CA538922   2.759   7.792   3.400  0.5317  0.3423  0.7268
17938THY    CM138923   2.678   7.707   3.499  1.1613 -0.1431 -0.7900
17938THY    HM138924   2.584   7.761   3.515  2.7144  2.5680  1.3424
17938THY    HM238925   2.735   7.692   3.592  2.0304 -0.9625 -2.9535
17938THY    HM338926   2.656   7.603   3.473  0.4222  1.8959 -1.1875
17938THY    CA638927   2.801   7.745   3.282  0.8120  0.6140  0.7015
17938THY    HA638928   2.790   7.638   3.265  1.7681 -2.0471  0.9454
17939THY      O38929   7.508   8.119   5.028 -0.3813  0.0621 -0.5641
17939THY     HO38930   7.430   8.177   5.027  0.6124  0.2218  0.8011
17939THY    CA138931   7.525   8.074   5.154 -0.1290  0.4932  0.3690
17939THY    CA238932   7.583   7.947   5.180  0.6665  0.7059  0.2530
17939THY    CP138933   7.646   7.868   5.065  0.4572 -0.0745 -0.5077
17939THY    HP138934   7.663   7.926   4.973  0.9923 -1.0019 -2.0606
17939THY    CP238935   7.560   7.743   5.031  0.0461 -0.2616  0.5582
17939THY    HP238936   7.542   7.677   5.116 -2.4477 -2.1654 -1.4506
17939THY    HP338937   7.605   7.696   4.942 -1.0232 -1.5909  1.9215
17939THY    HP438938   7.458   7.780   5.016  0.7624 -2.0930  1.9455
17939THY    CP338939   7.784   7.820   5.103  1.0738 -0.6457  0.3665
17939THY    HP538940   7.823   7.753   5.026  0.6616  0.5851 -1.3787
17939THY    HP638941   7.778   7.756   5.192 -0.8925 -3.3135 -3.5762
17939THY    HP738942   7.855   7.901   5.122 -0.0556  0.1398  1.2102
17939THY    CA338943   7.592   7.893   5.309  0.5276  0.3335  0.3013
17939THY    HA338944   7.639   7.798   5.332  0.8948 -0.6887  0.2253
17939THY    CA438945   7.524   7.968   5.410 -0.4028 -1.0022 -0.9621
17939THY    HA438946   7.514   7.940   5.515 -2.2745 -0.3529  1.6602
17939THY    CA538947   7.466   8.095   5.384 -0.1364 -0.3335 -0.1484
17939THY    CM138948   7.395   8.169   5.494  0.2226 -0.5466 -0.9071
17939THY    HM138949   7.451   8.263   5.492 -0.3712 -0.9819 -0.5565
17939THY    HM238950   7.406   8.116   5.590 -0.7147 -0.7764 -1.5529
17939THY    HM338951   7.290   8.191   5.470 -0.1051  2.1271  0.9466
17939THY    CA638952   7.464   8.142   5.257  0.1150 -0.5261 -0.5885
17939THY    HA638953   7.429   8.241   5.228 -0.8359 -1.7386 -1.2660
17940THY      O38954   8.296   8.033   6.036 -0.3082  0.2870 -0.1583
17940THY     HO38955   8.322   8.126   6.021  0.2033  0.0698 -0.3329
17940THY    CA138956   8.261   8.032   6.170  0.1666 -0.0140 -0.9636
17940THY    CA238957   8.212   7.912   6.234 -0.2535  0.2997  0.0825
17940THY    CP138958   8.216   7.782   6.159  0.0409  0.4180  0.2840
17940THY    HP138959   8.225   7.796   6.050  0.5885  0.3848 -0.2980
17940THY    CP238960   8.067   7.727   6.160 -0.0356  0.1397  0.6918
17940THY    HP238961   8.060   7.625   6.120  1.6518 -0.4704  0.7884
17940THY    HP338962   7.993   7.795   6.117 -0.5120  0.1891  0.2191
17940THY    HP438963   8.046   7.726   6.267  0.3384  0.2141  0.0777
17940THY    CP338964   8.307   7.675   6.214  0.1936  0.8334  0.1067
17940THY    HP538965   8.395   7.731   6.249 -0.1306  0.0330  1.1492
17940THY    HP638966   8.342   7.613   6.130  1.4688  0.4881  1.2491
17940THY    HP738967   8.256   7.619   6.293 -0.7038 -0.5253 -1.0818
17940THY    CA338968   8.192   7.916   6.376  0.7985  0.1872  0.8124
17940THY    HA338969   8.166   7.825   6.429 -0.2948  0.6614  1.3731
17940THY    CA438970   8.201   8.039   6.438  0.2648 -0.8618  0.6464
17940THY    HA438971   8.192   8.043   6.546 -1.4435 -0.9727  0.4417
17940THY    CA538972   8.249   8.156   6.379 -0.0542 -0.0755  0.2598
17940THY    CM138973   8.272   8.276   6.465 -0.6862  1.5477  0.0099
17940THY    HM138974   8.219   8.273   6.561  1.7017  2.9378 -0.3119
17940THY    HM238975   8.229   8.365   6.419 -3.3604  1.3768 -1.2476
17940THY    HM338976   8.377   8.296   6.485 -0.0314 -0.1244 -1.4491
17940THY    CA638977   8.285   8.147   6.243  0.2763  0.0866 -0.0274
17940THY    HA638978   8.321   8.241   6.203  2.1961 -0.8234 -1.1019
17941THY      O38979   2.632   9.035   7.203  0.9539  0.0754 -0.0139
17941THY     HO38980   2.594   8.946   7.213  0.3070 -1.1835  0.0951
17941THY    CA138981   2.689   9.073   7.315 -0.5488  0.1701  0.4524
17941THY    CA238982   2.684   9.202   7.356  0.7625 -0.5095  0.1740
17941THY    CP138983   2.593   9.308   7.297  0.3576  0.7966 -0.7517
17941THY    HP138984   2.535   9.252   7.222  0.9212 -2.7351  2.9633
17941THY    CP238985   2.679   9.407   7.226 -0.1331 -1.1603 -0.0637
17941THY    HP238986   2.749   9.340   7.175  0.0475  0.1447 -0.8972
17941THY    HP338987   2.743   9.473   7.285  1.4598 -3.8540  0.9455
17941THY    HP438988   2.616   9.469   7.161 -2.7154  0.2578 -0.9988
17941THY    CP338989   2.506   9.363   7.405  0.7159 -0.6301 -0.8631
17941THY    HP538990   2.420   9.414   7.360  0.9827 -0.0056  0.1753
17941THY    HP638991   2.551   9.448   7.458  0.4895 -1.4024 -0.2413
17941THY    HP738992   2.470   9.290   7.479  0.1244 -0.0478 -0.0041
17941THY    CA338993   2.761   9.236   7.475  0.1841  0.0182 -0.3157
17941THY    HA338994   2.739   9.332   7.519  2.0760  0.5187 -0.0773
17941THY    CA438995   2.856   9.140   7.515  0.0239  0.2831  0.3573
17941THY    HA438996   2.921   9.159   7.600 -0.5054  0.6342  0.6174
17941THY    CA538997   2.870   9.013   7.461 -0.2351 -0.2416  0.0081
17941THY    CM138998   2.951   8.907   7.525 -0.2285 -0.1355  0.0895
17941THY    HM138999   3.016   8.869   7.445  0.4012  0.3396  0.1388
17941THY    HM239000   2.886   8.823   7.552 -1.9577  0.4893  1.5665
17941THY    HM339001   3.004   8.952   7.610  0.6389  0.1638 -1.4273
17941THY    CA639002   2.775   8.981   7.369  1.0602 -0.5555  0.0629
17941THY    HA639003   2.782   8.885   7.318 -1.6803 -0.8554 -0.0793
17942THY      O39004   2.972   7.508   7.592 -0.2618 -0.0373 -0.1061
17942THY     HO39005   2.929   7.513   7.679  1.6486  1.0570 -1.4584
17942THY    CA139006   2.971   7.380   7.566  0.5864  0.4858  0.3443
17942THY    CA239007   3.040   7.323   7.451  0.4677 -0.3382  0.1622
17942THY    CP139008   3.101   7.409   7.337  0.3151 -0.1640 -0.1579
17942THY    HP139009   3.156   7.489   7.388  1.5936  1.1482 -1.7956
17942THY    CP239010   2.979   7.457   7.253  0.3185  0.6770 -0.3965
17942THY    HP239011   2.886   7.400   7.265  0.1542  1.1272 -0.0474
17942THY    HP339012   2.992   7.463   7.145  1.4720  0.8521  0.6996
17942THY    HP439013   2.956   7.562   7.274  0.2990 -2.3400  0.2783
17942THY    CP339014   3.189   7.331   7.240  0.0519 -0.1980  0.0140
17942THY    HP539015   3.136   7.249   7.190 -0.6524 -0.9386  0.8948
17942THY    HP639016   3.284   7.298   7.284  1.5411 -2.5922  0.8393
17942THY    HP739017   3.225   7.396   7.160  2.0342 -0.8466 -1.7690
17942THY    CA339018   3.047   7.181   7.441 -0.0144  0.4194  0.4917
17942THY    HA339019   3.105   7.132   7.364  1.9800  1.9388  0.3446
17942THY    CA439020   2.979   7.096   7.529 -0.1322  0.2228 -0.0637
17942THY    HA439021   2.975   6.988   7.520 -3.4858 -2.4041  0.1138
17942THY    CA539022   2.920   7.155   7.636  0.8036 -0.8730  0.3165
17942THY    CM139023   2.866   7.071   7.748  0.1636  0.8262 -0.1273
17942THY    HM139024   2.822   7.135   7.825  0.2523  0.2501  0.6336
17942THY    HM239025   2.946   7.015   7.800  1.0806  2.2757  2.3800
17942THY    HM339026   2.792   6.997   7.716 -1.2563  1.3191  1.0492
17942THY    CA639027   2.903   7.297   7.651  0.4456 -0.4394  0.1396
17942THY    HA639028   2.849   7.332   7.739  1.5317  0.3975 -0.2041
17943THY      O39029   0.630   7.587   2.923  0.4037  0.2238 -0.0891
17943THY     HO39030   0.689   7.598   2.847 -0.2636 -0.2210  0.5199
17943THY    CA139031   0.697   7.643   3.034 -0.0610  0.0460  0.5570
17943THY    CA239032   0.636   7.735   3.119 -0.6263 -0.3648 -0.1663
17943THY    CP139033   0.494   7.776   3.101  0.5654  1.0066  0.0259
17943THY    HP139034   0.447   7.681   3.072  1.1960 -0.7075  0.1917
17943THY    CP239035   0.493   7.872   2.980 -0.2976  0.4170  0.1786
17943THY    HP239036   0.532   7.971   3.009 -0.7467 -0.2356  0.5615
17943THY    HP339037   0.392   7.901   2.951 -0.4994  0.9049 -0.0285
17943THY    HP439038   0.553   7.832   2.897  0.0937  0.6889  0.1957
17943THY    CP339039   0.413   7.823   3.216 -0.0315 -0.4540  0.1851
17943THY    HP539040   0.315   7.851   3.174 -0.2298  0.7611  1.4437
17943THY    HP639041   0.461   7.906   3.271  1.4753  0.7854 -1.4429
17943THY    HP739042   0.394   7.735   3.278 -0.8255 -1.7066 -0.5462
17943THY    CA339043   0.711   7.778   3.230 -0.0001 -0.0843 -0.8095
17943THY    HA339044   0.672   7.850   3.301  3.6785  1.2352  0.1150
17943THY    CA439045   0.849   7.742   3.239 -0.0003 -0.4906 -0.0629
17943THY    HA439046   0.902   7.782   3.326 -1.8138  0.7517 -0.2288
17943THY    CA539047   0.909   7.649   3.150  0.4364 -0.8229 -0.8412
17943THY    CM139048   1.038   7.608   3.175 -0.4216 -0.0459  0.5570
17943THY    HM139049   1.051   7.502   3.150 -1.0033  0.4865  0.3520
17943THY    HM239050   1.066   7.612   3.281 -0.0965  0.0417 -2.1312
17943THY    HM339051   1.108   7.662   3.109 -0.9548  0.6209  2.1095
17943THY    CA639052   0.828   7.595   3.047  1.2954 -0.2722 -0.2336
17943THY    HA639053   0.866   7.517   2.982 -0.4078 -1.0373 -0.4908
17944THY      O39054   4.582   5.590   2.072 -0.5762  0.1810 -0.0093
17944THY     HO39055   4.533   5.531   2.012  0.0836 -1.3063  0.8918
17944THY    CA139056   4.688   5.517   2.113 -0.2969 -0.2851  0.2734
17944THY    CA239057   4.746   5.537   2.240 -0.4357 -0.0776  0.8768
17944THY    CP139058   4.680   5.629   2.336  0.3524 -0.6138 -0.6002
17944THY    HP139059   4.587   5.674   2.298 -0.1794  0.7476 -0.5194
17944THY    CP239060   4.778   5.749   2.361 -0.4692  0.6817 -0.2448
17944THY    HP239061   4.871   5.705   2.399 -1.1449  1.6326 -0.8825
17944THY    HP339062   4.736   5.822   2.431  0.5800 -0.3088  1.3633
17944THY    HP439063   4.812   5.799   2.270  0.9860  0.4620 -1.5638
17944THY    CP339064   4.654   5.560   2.471  1.1176 -0.0365  0.3549
17944THY    HP539065   4.574   5.616   2.521 -1.1253 -2.8026 -0.1473
17944THY    HP639066   4.748   5.548   2.526  0.6602  0.6024 -0.4379
17944THY    HP739067   4.619   5.459   2.446  0.5369 -2.7876  1.1627
17944THY    CA339068   4.864   5.460   2.265 -0.3301 -0.3793  0.0683
17944THY    HA339069   4.904   5.477   2.365  3.4873 -1.7172 -0.0689
17944THY    CA439070   4.910   5.360   2.171 -0.5636 -0.4189 -0.0255
17944THY    HA439071   4.995   5.293   2.182 -1.1691 -1.5952 -1.0218
17944THY    CA539072   4.839   5.344   2.053  0.7095  0.0058  0.5319
17944THY    CM139073   4.883   5.250   1.952  0.4583 -0.3558  0.2839
17944THY    HM139074   4.821   5.242   1.862  0.3046 -0.3514  1.2574
17944THY    HM239075   4.896   5.150   1.993 -2.2945 -1.6554 -0.7177
17944THY    HM339076   4.981   5.286   1.919  0.1018 -0.7925  0.8733
17944THY    CA639077   4.726   5.416   2.023  0.4073  0.2790  0.2427
17944THY    HA639078   4.677   5.398   1.928  0.8796  0.3686 -1.7429
17945THY      O39079   1.203   2.390   6.205  0.5740 -0.9401 -0.4030
17945THY     HO39080   1.217   2.429   6.292  1.1278 -2.1093  2.2057
17945THY    CA139081   1.297   2.458   6.131  0.2191 -0.0362 -1.0999
17945THY    CA239082   1.366   2.387   6.031  0.1174  0.1688 -0.0809
17945THY    CP139083   1.312   2.250   5.975 -0.4326 -0.1384  0.4978
17945THY    HP139084   1.206   2.246   6.003 -0.1433  0.8795 -0.6931
17945THY    CP239085   1.401   2.145   6.048  0.3878  0.0517  0.6582
17945THY    HP239086   1.506   2.171   6.031  0.1213 -2.5373  0.3579
17945THY    HP339087   1.379   2.049   5.999  0.8018 -0.1306  0.6543
17945THY    HP439088   1.370   2.135   6.152  0.7095  0.0085 -1.1835
17945THY    CP339089   1.330   2.239   5.818 -0.0935 -0.2118  0.8129
17945THY    HP539090   1.278   2.154   5.773 -0.4472  1.5294  0.0564
17945THY    HP639091   1.437   2.243   5.794  0.3294  1.1713 -0.9629
17945THY    HP739092   1.279   2.328   5.778  0.5178 -0.1238  1.2102
17945THY    CA339093   1.482   2.447   5.979 -0.1162  0.7680 -0.7270
17945THY    HA339094   1.542   2.395   5.905 -0.0112  0.4777 -0.1996
17945THY    CA439095   1.522   2.571   6.026 -0.1277  0.4114 -0.3927
17945THY    HA439096   1.603   2.624   5.977 -0.6803 -0.2193 -0.1249
17945THY    CA539097   1.450   2.637   6.120 -0.6402 -0.3149  0.7482
17945THY    CM139098   1.502   2.769   6.169  0.3885  0.3555  0.7271
17945THY    HM139099   1.610   2.770   6.187  0.7161 -1.4142  1.4503
17945THY    HM239100   1.463   2.804   6.265 -0.4500  1.2024 -2.2254
17945THY    HM339101   1.478   2.845   6.094  2.5218 -1.1098  0.0592
17945THY    CA639102   1.342   2.582   6.178  0.5295  0.3083  0.7577
17945THY    HA639103   1.285   2.628   6.257  0.5965 -0.0265  1.4234
17946THY      O39104   8.597   3.054   1.964 -0.4706  0.0995  0.1352
17946THY     HO39105   8.651   3.096   1.896 -2.8961 -1.3460  1.1415
17946THY    CA139106   8.648   3.099   2.081 -0.2504 -0.3119  0.5413
17946THY    CA239107   8.583   3.097   2.210 -0.2926  0.4092 -0.0887
17946THY    CP139108   8.449   3.040   2.227 -0.1256 -0.1374  0.4865
17946THY    HP139109   8.418   3.009   2.126  3.3006 -1.7137  1.6575
17946THY    CP239110   8.344   3.140   2.271  0.8707 -0.2215 -0.0052
17946THY    HP239111   8.342   3.233   2.213 -2.2917 -0.2218  0.0088
17946THY    HP339112   8.372   3.182   2.369  1.7072 -0.4887  0.0807
17946THY    HP439113   8.245   3.095   2.270 -0.8242 -1.2536  3.3932
17946THY    CP339114   8.443   2.918   2.319 -0.3572 -1.1654 -0.1530
17946THY    HP539115   8.505   2.836   2.280  0.4709  0.5657 -0.3799
17946THY    HP639116   8.343   2.879   2.340 -0.1564  0.5690  0.2034
17946THY    HP739117   8.484   2.948   2.416 -0.6849 -1.3664  0.9751
17946THY    CA339118   8.648   3.160   2.322  0.1061 -0.5411 -0.4846
17946THY    HA339119   8.596   3.164   2.418 -2.6324 -1.9613  1.5842
17946THY    CA439120   8.763   3.228   2.304 -0.1363  0.2032 -0.2358
17946THY    HA439121   8.800   3.284   2.389 -0.7345  0.0631  0.3732
17946THY    CA539122   8.819   3.236   2.178 -0.6299 -0.2364  0.0149
17946THY    CM139123   8.945   3.312   2.164  0.4358 -0.0910  0.0718
17946THY    HM139124   9.018   3.257   2.103 -0.1950 -0.3775 -0.4565
17946THY    HM239125   8.992   3.334   2.261  0.8910  0.3040 -2.3235
17946THY    HM339126   8.925   3.405   2.109 -0.7150  0.1470 -0.0301
17946THY    CA639127   8.769   3.168   2.070 -0.5403  0.5572 -0.1587
17946THY    HA639128   8.828   3.175   1.980 -1.5257 -0.0100  1.0206
17947THY      O39129   8.263   8.269   5.641  0.1661 -0.1200  0.1163
17947THY     HO39130   8.253   8.173   5.645 -0.9297  0.6262  0.2459
17947THY    CA139131   8.374   8.298   5.573 -0.5173 -0.5233 -0.0407
17947THY    CA239132   8.396   8.428   5.521 -0.5729  0.2726 -0.1682
17947THY    CP139133   8.300   8.538   5.553  0.2341 -0.2094  0.0312
17947THY    HP139134   8.220   8.502   5.619  0.6197  0.4540  0.3750
17947THY    CP239135   8.230   8.585   5.434 -0.0981 -0.2773  0.1251
17947THY    HP239136   8.182   8.682   5.452  0.2412 -0.4655  0.3299
17947THY    HP339137   8.149   8.514   5.413 -0.8794  3.0596 -0.1533
17947THY    HP439138   8.302   8.600   5.353 -0.2379 -0.4639 -0.1965
17947THY    CP339139   8.369   8.649   5.629  0.4276 -0.3164  0.4367
17947THY    HP539140   8.472   8.615   5.647  0.6137 -0.1932  1.0498
17947THY    HP639141   8.325   8.670   5.727 -0.5104 -0.4574 -0.7765
17947THY    HP739142   8.381   8.737   5.565  0.7182 -1.4661 -0.4089
17947THY    CA339143   8.512   8.449   5.442 -0.5425  0.2959 -0.8052
17947THY    HA339144   8.527   8.547   5.397  0.9269  1.0120 -0.6692
17947THY    CA439145   8.610   8.344   5.430  0.5350  0.0217  0.0770
17947THY    HA439146   8.697   8.350   5.365  0.5438 -0.3493 -2.6260
17947THY    CA539147   8.586   8.220   5.485 -0.3823 -0.5223  0.5437
17947THY    CM139148   8.691   8.117   5.478 -0.9290 -0.0286 -0.5051
17947THY    HM139149   8.699   8.062   5.572  1.2185 -1.7281 -3.4267
17947THY    HM239150   8.790   8.158   5.458 -1.4251 -2.6436 -0.3614
17947THY    HM339151   8.663   8.029   5.419  0.4439 -0.8871 -0.3919
17947THY    CA639152   8.458   8.191   5.552 -0.8904  0.6980  0.6106
17947THY    HA639153   8.446   8.099   5.609 -1.7797 -2.1531 -1.1557
17948THY      O39154   5.712   5.141   1.928  0.5341  0.1898 -0.8501
17948THY     HO39155   5.798   5.160   1.968  0.5465 -0.2372  0.0316
17948THY    CA139156   5.735   5.049   1.833  0.3682 -0.6790 -0.3966
17948THY    CA239157   5.630   5.003   1.756  0.6612 -0.2725  0.0154
17948THY    CP139158   5.478   5.038   1.795 -0.5930 -0.4841  0.0003
17948THY    HP139159   5.479   5.104   1.882  0.6331 -1.9461  2.0285
17948THY    CP239160   5.394   4.921   1.820  0.0842 -0.5105  0.1366
17948THY    HP239161   5.299   4.948   1.868  0.8287  0.0840  1.8801
17948THY    HP339162   5.442   4.846   1.884  0.5288 -0.3493  0.5451
17948THY    HP439163   5.379   4.872   1.724 -0.5266 -0.0253 -0.6528
17948THY    CP339164   5.428   5.114   1.681  0.7551 -1.0817 -0.9697
17948THY    HP539165   5.323   5.138   1.703  1.5496  0.2092  1.8154
17948THY    HP639166   5.422   5.060   1.586 -1.1139 -2.0158  0.7035
17948THY    HP739167   5.493   5.203   1.682 -0.4529  0.3071 -0.0406
17948THY    CA339168   5.659   4.902   1.665 -0.4264 -0.0409 -0.7167
17948THY    HA339169   5.582   4.861   1.601 -1.8794  2.6858 -2.5390
17948THY    CA439170   5.787   4.848   1.655 -0.3193 -0.2421 -0.7719
17948THY    HA439171   5.810   4.779   1.574  0.1073 -2.4109  1.7572
17948THY    CA539172   5.896   4.898   1.729  0.2617 -0.7195  0.8457
17948THY    CM139173   6.034   4.835   1.729  0.0666  0.2169 -0.2760
17948THY    HM139174   6.037   4.771   1.640  0.3823 -1.4824  1.9529
17948THY    HM239175   6.053   4.779   1.821  2.6785  0.2762  0.5927
17948THY    HM339176   6.112   4.912   1.719  1.3499  0.9457 -1.4419
17948THY    CA639177   5.867   4.996   1.820  0.0203 -1.1688 -0.6114
17948THY    HA639178   5.947   5.041   1.879 -1.0761  0.7777 -1.1188
17949THY      O39179   8.273   1.567   5.958 -0.2137  0.2167  0.7390
17949THY     HO39180   8.338   1.537   5.893 -0.5982  0.7769 -1.5078
17949THY    CA139181   8.328   1.574   6.089 -0.0096  0.6529  0.4271
17949THY    CA239182   8.255   1.615   6.199 -0.0759  0.0356 -0.5058
17949THY    CP139183   8.107   1.672   6.187 -0.4310  0.3488  0.3981
17949THY    HP139184   8.065   1.663   6.086  1.6814 -0.5781  0.3867
17949THY    CP239185   8.102   1.816   6.234  0.3614 -0.1919 -0.8620
17949THY    HP239186   8.154   1.829   6.330  0.8739 -0.4703 -0.8238
17949THY    HP339187   7.999   1.848   6.253  0.4714 -0.1094 -0.5574
17949THY    HP439188   8.153   1.876   6.158 -0.8636  0.0586  0.5233
17949THY    CP339189   8.005   1.587   6.264  0.0534  1.0465 -0.0507
17949THY    HP539190   7.907   1.634   6.275 -0.9033 -0.0460 -1.6974
17949THY    HP639191   8.036   1.561   6.365  0.1114  1.9848  3.1521
17949THY    HP739192   7.991   1.495   6.207 -1.7216  1.0202  0.2104
17949THY    CA339193   8.324   1.614   6.323 -0.6380  0.0997  0.1515
17949THY    HA339194   8.271   1.641   6.414  0.4424  0.9775 -0.6113
17949THY    CA439195   8.467   1.583   6.331 -0.0274 -0.6211  0.0289
17949THY    HA439196   8.510   1.574   6.430 -1.0607 -0.3204 -2.3292
17949THY    CA539197   8.536   1.545   6.218  0.5951  0.1417 -0.7467
17949THY    CM139198   8.682   1.514   6.229 -0.3377  0.0763  0.5009
17949THY    HM139199   8.732   1.593   6.286 -0.5427  0.5372  0.3011
17949THY    HM239200   8.734   1.511   6.132  0.0766  0.3145 -0.3223
17949THY    HM339201   8.698   1.416   6.274  0.1215 -0.0360  0.5227
17949THY    CA639202   8.466   1.539   6.098  0.5968  0.0135  0.0158
17949THY    HA639203   8.520   1.513   6.007 -0.5090 -0.3690 -1.0213
17950THY      O39204   1.277   7.035   4.258 -0.2659  0.4298 -0.1857
17950THY     HO39205   1.283   6.987   4.343 -3.0685  0.0735 -1.3596
17950THY    CA139206   1.353   6.976   4.168 -1.2255 -0.0806  0.1300
17950THY    CA239207   1.308   6.963   4.040  0.4137 -0.2381  0.8398
17950THY    CP139208   1.176   7.021   3.998 -0.2098 -0.0281  0.7062
17950THY    HP139209   1.112   7.022   4.088 -0.4765 -0.2180  1.7391
17950THY    CP239210   1.099   6.942   3.888 -0.0259 -0.0441  0.2048
17950THY    HP239211   0.998   6.985   3.883  0.5604 -0.9693  1.5514
17950THY    HP339212   1.074   6.836   3.902 -1.9299  1.1318  0.7423
17950THY    HP439213   1.135   6.960   3.786 -0.7118 -0.2037  0.7426
17950THY    CP339214   1.200   7.161   3.948 -0.0797 -0.1826 -0.1630
17950THY    HP539215   1.105   7.206   3.919  0.8014 -1.4715  0.9733
17950THY    HP639216   1.272   7.156   3.865  0.3394 -0.0586  2.3705
17950THY    HP739217   1.251   7.225   4.021  2.2490 -2.5498  0.8963
17950THY    CA339218   1.389   6.891   3.953 -0.2027  0.5105 -0.0658
17950THY    HA339219   1.355   6.883   3.851  0.9477 -0.2450  3.2432
17950THY    CA439220   1.509   6.834   3.992  0.2880 -0.8235 -0.4795
17950THY    HA439221   1.559   6.781   3.911  0.4972 -1.4996  0.7319
17950THY    CA539222   1.568   6.872   4.112 -0.5078 -0.3043 -0.6710
17950THY    CM139223   1.703   6.833   4.162 -0.0880 -0.1629 -0.3363
17950THY    HM139224   1.687   6.779   4.255 -0.4501 -0.4338 -0.6962
17950THY    HM239225   1.760   6.923   4.190 -1.0886  0.5137  0.1034
17950THY    HM339226   1.759   6.773   4.089 -0.7067  0.1391 -1.2855
17950THY    CA639227   1.488   6.952   4.195  0.6292 -0.0322  0.0306
17950THY    HA639228   1.533   6.989   4.287  0.2725  0.7872 -1.4857
17951THY      O39229   5.576   2.784   2.975 -0.0001 -0.6715 -0.4473
17951THY     HO39230   5.500   2.799   2.916 -0.3478 -0.1330 -0.0536
17951THY    CA139231   5.589   2.900   3.045 -0.1276 -0.8830  0.9686
17951THY    CA239232   5.677   2.907   3.159 -0.0650 -0.6360 -0.1277
17951THY    CP139233   5.738   2.787   3.224 -0.1054 -0.1455  0.6040
17951THY    HP139234   5.713   2.692   3.176 -2.3017  0.6463  0.7119
17951THY    CP239235   5.690   2.769   3.363 -0.0143  0.5208  0.5642
17951THY    HP239236   5.743   2.685   3.410 -0.8373  1.1864  0.4045
17951THY    HP339237   5.583   2.747   3.356  0.2076 -3.3643  0.0673
17951THY    HP439238   5.704   2.855   3.429  0.8575 -0.1184  0.9344
17951THY    CP339239   5.894   2.799   3.219 -0.3129 -0.3287 -0.0252
17951THY    HP539240   5.924   2.816   3.115  0.4924 -0.2908 -1.1143
17951THY    HP639241   5.940   2.703   3.246 -0.6575  0.8732  0.1288
17951THY    HP739242   5.935   2.869   3.293 -1.2747  0.6215 -0.4298
17951THY    CA339243   5.697   3.026   3.223  0.0451  0.9360 -0.5023
17951THY    HA339244   5.767   3.032   3.306  2.4960 -1.1269  0.9868
17951THY    CA439245   5.634   3.147   3.166 -0.1494 -0.1105 -0.1334
17951THY    HA439246   5.657   3.243   3.211 -1.3646 -1.0820  0.6357
17951THY    CA539247   5.566   3.140   3.045  0.0319  0.7912 -0.2887
17951THY    CM139248   5.515   3.259   2.973 -0.2925  0.5371  0.4704
17951THY    HM139249   5.546   3.265   2.868 -0.0215  0.5534 -0.4473
17951THY    HM239250   5.544   3.356   3.015 -0.5076 -0.0632  0.8005
17951THY    HM339251   5.405   3.266   2.971 -0.3776 -0.8796 -0.6348
17951THY    CA639252   5.538   3.013   2.993 -0.1635  0.3973 -0.3064
17951THY    HA639253   5.480   2.993   2.904  0.0209  0.4211 -0.9786
17952THY      O39254   7.282   0.344   2.970 -0.2952 -0.3004  0.3060
17952THY     HO39255   7.214   0.288   3.010  0.8332 -0.8581 -1.5327
17952THY    CA139256   7.373   0.357   3.073 -0.2325 -0.5487  0.2976
17952THY    CA239257   7.511   0.337   3.046 -0.6968 -0.3620  0.0502
17952THY    CP139258   7.564   0.318   2.902  0.1180 -0.5257 -0.3816
17952THY    HP139259   7.483   0.308   2.828 -0.0019 -0.1004 -3.8193
17952THY    CP239260   7.637   0.186   2.884 -0.1106  0.1809  0.6535
17952THY    HP239261   7.736   0.185   2.930  0.9176 -1.8930 -1.5100
17952THY    HP339262   7.654   0.159   2.779 -0.9188  0.5287 -1.3778
17952THY    HP439263   7.573   0.108   2.926  1.2447  0.0952 -0.5267
17952THY    CP339264   7.652   0.437   2.862 -0.1997 -0.1589  0.0672
17952THY    HP539265   7.684   0.423   2.758 -0.0798  0.1472 -2.3540
17952THY    HP639266   7.739   0.431   2.927 -0.2110 -0.2875 -2.0619
17952THY    HP739267   7.601   0.533   2.876 -0.1229  0.4314  0.0244
17952THY    CA339268   7.600   0.356   3.154  1.1498 -0.4048 -0.0749
17952THY    HA339269   7.706   0.334   3.138  1.4287  1.8129 -0.5988
17952THY    CA439270   7.550   0.384   3.282 -0.5552  0.3244 -0.1601
17952THY    HA439271   7.621   0.377   3.364 -1.0615  0.7186 -0.9336
17952THY    CA539272   7.415   0.405   3.305 -0.4062  0.3295  0.3875
17952THY    CM139273   7.371   0.434   3.447 -0.6887  0.6842  0.0863
17952THY    HM139274   7.408   0.526   3.493 -0.0541  0.4019 -0.0189
17952THY    HM239275   7.417   0.357   3.510  2.2034  1.2953  2.1527
17952THY    HM339276   7.262   0.429   3.458 -0.4789  2.6602 -3.3171
17952THY    CA639277   7.324   0.382   3.200  0.4133 -0.3367  0.0175
17952THY    HA639278   7.218   0.399   3.216  0.9781  1.6995  2.2017
17953THY      O39279   5.383   7.190   7.567 -0.2845  0.1599 -0.5537
17953THY     HO39280   5.295   7.223   7.542 -0.4338  3.1837  1.7763
17953THY    CA139281   5.451   7.303   7.595 -0.3115  0.2164  0.3233
17953THY    CA239282   5.579   7.302   7.657 -1.0048  0.6441  1.0816
17953THY    CP139283   5.635   7.169   7.692  0.1146  0.6317 -0.4601
17953THY    HP139284   5.559   7.091   7.683 -1.1369 -0.4830  0.8419
17953THY    CP239285   5.669   7.159   7.837  0.2193 -0.4941  0.5539
17953THY    HP239286   5.585   7.175   7.905  0.1424  0.1116 -2.0030
17953THY    HP339287   5.743   7.234   7.869 -1.0794  1.3914  1.1020
17953THY    HP439288   5.705   7.058   7.858 -1.2870 -0.3245  0.0293
17953THY    CP339289   5.760   7.139   7.605 -0.4426 -0.3529 -0.1947
17953THY    HP539290   5.724   7.111   7.505  1.3104 -0.2569 -3.1415
17953THY    HP639291   5.805   7.044   7.636 -0.2512  0.4921  0.1640
17953THY    HP739292   5.842   7.212   7.598 -0.4530 -1.1847 -0.2495
17953THY    CA339293   5.664   7.417   7.659 -0.9601 -0.2024  0.0994
17953THY    HA339294   5.768   7.420   7.688 -0.7068 -1.1532  0.7866
17953THY    CA439295   5.605   7.539   7.611  0.5842  0.2779 -0.5816
17953THY    HA439296   5.662   7.631   7.608  0.1055 -0.0823 -0.2920
17953THY    CA539297   5.475   7.537   7.564  0.6284 -0.7774 -0.0825
17953THY    CM139298   5.425   7.654   7.497 -0.6385  0.3624  0.4026
17953THY    HM139299   5.321   7.661   7.530 -1.2080 -1.2473 -0.0007
17953THY    HM239300   5.439   7.644   7.389  1.4776  0.7396 -1.9218
17953THY    HM339301   5.482   7.739   7.536  2.8168 -1.2880 -0.9464
17953THY    CA639302   5.399   7.424   7.558  0.2740 -0.2694  0.6984
17953THY    HA639303   5.304   7.427   7.506  0.7814 -1.3161 -0.3673
17954THY      O39304   7.732   0.621   5.204  0.2831 -0.0710 -0.1847
17954THY     HO39305   7.679   0.539   5.206 -0.8368  0.4626  0.5311
17954THY    CA139306   7.786   0.616   5.084 -0.4282  0.1533 -0.4662
17954THY    CA239307   7.797   0.730   5.002 -0.4591 -0.5844  0.4005
17954THY    CP139308   7.761   0.864   5.058  0.2437  0.3819  0.4500
17954THY    HP139309   7.661   0.849   5.102 -0.1607  0.2896  2.5369
17954THY    CP239310   7.757   0.981   4.949  0.0541 -0.0638 -0.5442
17954THY    HP239311   7.684   0.937   4.880  0.4726 -0.8771  0.0176
17954THY    HP339312   7.856   0.983   4.903  0.4910  0.8531 -0.4261
17954THY    HP439313   7.718   1.080   4.974  0.0789 -2.1337  0.0415
17954THY    CP339314   7.856   0.906   5.169 -0.5442 -0.2356 -0.6072
17954THY    HP539315   7.851   0.825   5.243  0.2113  0.9947  0.4519
17954THY    HP639316   7.824   1.005   5.204  1.0708 -1.0127  0.2305
17954THY    HP739317   7.957   0.919   5.128 -0.6345 -1.4488 -3.1601
17954THY    CA339318   7.856   0.713   4.870 -0.7073  0.0494  0.2654
17954THY    HA339319   7.887   0.799   4.812  1.3877  1.6373  0.6660
17954THY    CA439320   7.889   0.585   4.825  0.0399 -0.3389  1.1893
17954THY    HA439321   7.919   0.557   4.725 -0.6236  0.4126 -3.0347
17954THY    CA539322   7.842   0.469   4.904 -0.0485 -0.5746  0.8969
17954THY    CM139323   7.858   0.334   4.854 -0.5433  0.7612  0.0637
17954THY    HM139324   7.876   0.331   4.746  0.4063  0.9310 -2.2770
17954THY    HM239325   7.767   0.274   4.867 -0.4281 -0.6444 -0.4427
17954THY    HM339326   7.941   0.283   4.904  0.4975 -1.9348 -1.0363
17954THY    CA639327   7.795   0.488   5.031  0.4887  0.2729  0.3705
17954THY    HA639328   7.757   0.403   5.088  1.6183  0.0729 -0.2822
17955THY      O39329   3.907   8.644   5.862  0.4078  0.3937 -0.3373
17955THY     HO39330   3.823   8.596   5.849  0.1323 -1.1143  0.4816
17955THY    CA139331   3.991   8.552   5.918 -0.1779  0.3962 -0.0486
17955THY    CA239332   4.105   8.598   5.998  0.4057  0.5173  0.7492
17955THY    CP139333   4.111   8.743   6.041 -0.1228 -0.5775 -0.6709
17955THY    HP139334   4.040   8.807   5.988  0.5970 -0.9270 -0.1441
17955THY    CP239335   4.250   8.813   6.004  0.4337 -0.1605  0.0256
17955THY    HP239336   4.254   8.919   6.032 -0.8775  1.5243 -0.3266
17955THY    HP339337   4.276   8.793   5.899  1.4009 -0.1402  1.0815
17955THY    HP439338   4.329   8.772   6.068  1.6215 -1.0291  0.8621
17955THY    CP339339   4.089   8.759   6.193 -0.2319  0.1921  0.8786
17955THY    HP539340   3.991   8.715   6.216  0.0505  0.0001  0.1241
17955THY    HP639341   4.092   8.861   6.233 -1.9923  0.3710  0.8946
17955THY    HP739342   4.165   8.696   6.241 -1.8078  1.3010 -0.2423
17955THY    CA339343   4.197   8.502   6.036  0.5931  0.2595  0.0407
17955THY    HA339344   4.287   8.538   6.086 -0.7161  0.7050  2.9248
17955THY    CA439345   4.190   8.370   5.985  0.6063 -0.0185  0.3810
17955THY    HA439346   4.257   8.288   6.010 -1.7148  1.0908 -1.3118
17955THY    CA539347   4.092   8.335   5.896  0.8340  0.0862 -0.4816
17955THY    CM139348   4.094   8.204   5.838 -0.5600  0.4574  0.1323
17955THY    HM139349   4.161   8.133   5.887 -0.0754  0.8167  0.8397
17955THY    HM239350   4.131   8.201   5.735  0.3752  0.7734  0.4917
17955THY    HM339351   3.993   8.159   5.834 -0.2993  0.7078 -0.4875
17955THY    CA639352   3.987   8.423   5.871 -0.2335 -0.5424 -0.2892
17955THY    HA639353   3.898   8.397   5.814 -0.7686  0.5577 -0.9246
17956THY      O39354   7.484   7.622   3.866  0.0701  1.0143  0.1775
17956THY     HO39355   7.559   7.591   3.812 -0.2517  0.0663  1.0115
17956THY    CA139356   7.544   7.704   3.949  0.1176 -0.0717  0.0833
17956THY    CA239357   7.492   7.726   4.079 -0.0700  0.2961  0.0229
17956THY    CP139358   7.374   7.642   4.125  0.0505  0.2427  0.7988
17956THY    HP139359   7.354   7.568   4.047  3.6791 -0.2485  0.1774
17956THY    CP239360   7.252   7.735   4.136 -0.2380  0.0950 -0.0892
17956THY    HP239361   7.163   7.692   4.181 -0.0060  0.2197 -0.4370
17956THY    HP339362   7.220   7.761   4.034 -1.5946  0.8334  1.3111
17956THY    HP439363   7.272   7.826   4.194  1.1949 -2.0161  1.0491
17956THY    CP339364   7.382   7.565   4.261 -0.1331 -0.0598 -0.2030
17956THY    HP539365   7.389   7.644   4.337 -0.0942 -0.8923  0.6156
17956THY    HP639366   7.475   7.507   4.260 -0.4065 -2.3001 -0.6877
17956THY    HP739367   7.289   7.513   4.288 -0.9146 -1.0430  0.6395
17956THY    CA339368   7.550   7.824   4.165  0.1372  0.0562  0.3956
17956THY    HA339369   7.520   7.839   4.269 -1.0315 -0.0758 -0.9185
17956THY    CA439370   7.652   7.904   4.113 -0.1399 -0.0916  0.5670
17956THY    HA439371   7.690   7.987   4.172  1.9952  1.2655 -1.2500
17956THY    CA539372   7.696   7.886   3.977 -0.4966 -0.4070 -0.0772
17956THY    CM139373   7.791   7.989   3.922  0.6374  0.0076 -0.5448
17956THY    HM139374   7.855   7.937   3.849 -0.0081  0.3771 -1.9292
17956THY    HM239375   7.855   8.038   3.995  1.2685 -1.6017  1.1304
17956THY    HM339376   7.726   8.066   3.880 -0.9291  0.4876 -1.5501
17956THY    CA639377   7.641   7.784   3.897 -0.3002 -0.3915 -0.0330
17956THY    HA639378   7.675   7.763   3.796 -0.0367 -0.2501 -0.2850
17957THY      O39379   2.588   6.759   2.855  0.7469 -0.5315  0.1243
17957THY     HO39380   2.521   6.767   2.785  0.1118 -0.1013 -1.2395
17957THY    CA139381   2.583   6.866   2.940  0.6607 -0.2256 -0.0771
17957THY    CA239382   2.587   6.844   3.079  0.3135  0.0188 -0.4483
17957THY    CP139383   2.594   6.701   3.149 -0.2630  0.6311 -0.4071
17957THY    HP139384   2.582   6.629   3.067 -0.0429  1.1033 -0.9848
17957THY    CP239385   2.471   6.683   3.231 -0.4200  0.1005 -0.5913
17957THY    HP239386   2.385   6.716   3.173 -1.2258  0.2979 -2.2452
17957THY    HP339387   2.477   6.739   3.325 -1.3598 -0.2274  0.0803
17957THY    HP439388   2.466   6.575   3.253  2.0624  0.0760 -0.7708
17957THY    CP339389   2.730   6.687   3.214 -0.6075  0.4836  0.9414
17957THY    HP539390   2.746   6.595   3.271  0.7494 -1.9765 -0.4474
17957THY    HP639391   2.747   6.773   3.280  0.5016 -1.2119  2.0682
17957THY    HP739392   2.815   6.701   3.148 -0.6729  0.6441  2.2652
17957THY    CA339393   2.574   6.953   3.163 -0.3783 -0.5359  0.2060
17957THY    HA339394   2.585   6.944   3.271 -0.8747 -0.5240 -0.3246
17957THY    CA439395   2.558   7.076   3.103  0.3681  0.1041  0.2451
17957THY    HA439396   2.566   7.161   3.171  2.0403  1.3319 -0.8457
17957THY    CA539397   2.550   7.097   2.972  0.7435  0.8000  0.5749
17957THY    CM139398   2.538   7.235   2.920  0.2237  0.5075 -0.2211
17957THY    HM139399   2.634   7.283   2.939  0.7519 -1.8862 -0.1905
17957THY    HM239400   2.451   7.291   2.954  1.2203  1.4182  0.8236
17957THY    HM339401   2.545   7.234   2.811  1.7441  0.5693  0.5304
17957THY    CA639402   2.558   6.997   2.889  0.1794  0.6401  0.5838
17957THY    HA639403   2.560   7.012   2.782 -3.2207  0.0734 -1.8318
17958THY      O39404   2.170   1.722   7.805  0.1167  0.2887  0.6481
17958THY     HO39405   2.139   1.632   7.822 -3.0980 -0.8997  1.4011
17958THY    CA139406   2.158   1.721   7.671  0.0410 -0.4385 -0.0244
17958THY    CA239407   2.190   1.829   7.589  0.5845 -0.4419 -0.0498
17958THY    CP139408   2.215   1.967   7.649 -0.4378  0.4953 -0.4014
17958THY    HP139409   2.258   1.948   7.748 -1.7113  1.2979  0.7195
17958THY    CP239410   2.092   2.064   7.648 -0.0913  0.0648 -0.3961
17958THY    HP239411   2.002   2.015   7.686 -0.1721 -0.1321 -0.4028
17958THY    HP339412   2.076   2.102   7.546  5.6830 -0.5466  1.5022
17958THY    HP439413   2.110   2.158   7.702  1.2871 -0.0053 -0.5886
17958THY    CP339414   2.335   2.038   7.591  0.3822  0.5607  0.1069
17958THY    HP539415   2.364   2.128   7.646  1.0526  0.6603 -0.1625
17958THY    HP639416   2.304   2.064   7.489  1.2483  0.1897 -0.2480
17958THY    HP739417   2.425   1.974   7.591  0.1921  1.0223 -0.1605
17958THY    CA339418   2.158   1.814   7.453  0.2252  0.5711 -0.7718
17958THY    HA339419   2.185   1.899   7.390  1.0618 -0.0700 -1.4904
17958THY    CA439420   2.112   1.690   7.400  0.2315 -0.4212 -1.2524
17958THY    HA439421   2.087   1.680   7.295  0.8844 -0.9359  1.5706
17958THY    CA539422   2.107   1.582   7.484  0.0740  0.0520  0.2712
17958THY    CM139423   2.081   1.438   7.436 -0.5351 -0.1536 -0.0529
17958THY    HM139424   2.012   1.381   7.500 -0.6530  0.1854  0.4626
17958THY    HM239425   2.177   1.385   7.429  0.0473 -2.9050  1.2102
17958THY    HM339426   2.041   1.432   7.334  1.1448 -0.8201 -0.6291
17958THY    CA639427   2.127   1.596   7.623  0.3178 -0.3570 -0.1003
17958THY    HA639428   2.109   1.509   7.686  0.8053 -1.0900 -0.7498
17959THY      O39429   5.772   1.097   4.218  0.4898  0.1905 -0.1128
17959THY     HO39430   5.683   1.066   4.197  2.0217 -2.8761 -3.0215
17959THY    CA139431   5.839   1.116   4.096 -0.0166 -0.1236  0.2762
17959THY    CA239432   5.978   1.097   4.084 -0.1147 -0.3866  0.7340
17959THY    CP139433   6.065   1.056   4.204  0.0720  0.1398  0.0914
17959THY    HP139434   6.008   1.048   4.298 -2.1181 -1.2003 -1.1492
17959THY    CP239435   6.169   1.168   4.226  0.1483  0.3837 -0.3161
17959THY    HP239436   6.117   1.262   4.247  1.2002 -0.2275  0.4228
17959THY    HP339437   6.232   1.175   4.137 -1.4537 -0.8073 -0.4389
17959THY    HP439438   6.241   1.132   4.300 -0.1096  0.6848 -0.2197
17959THY    CP339439   6.133   0.927   4.198 -0.5269  0.2898 -0.4517
17959THY    HP539440   6.056   0.849   4.190  0.4315 -0.8104 -1.3102
17959THY    HP639441   6.199   0.915   4.285  0.9951 -0.8238 -0.2855
17959THY    HP739442   6.191   0.930   4.106 -1.7587 -0.5523 -1.5788
17959THY    CA339443   6.038   1.129   3.960  0.2797 -0.5935 -0.2208
17959THY    HA339444   6.143   1.130   3.936  0.4343 -0.0903 -2.0175
17959THY    CA439445   5.958   1.164   3.853  0.0799 -0.1946 -0.0084
17959THY    HA439446   6.016   1.172   3.761  0.4783 -0.2119 -2.2603
17959THY    CA539447   5.819   1.159   3.859 -0.0163 -0.1506 -0.7714
17959THY    CM139448   5.749   1.195   3.734 -0.2137  1.1783  0.2087
17959THY    HM139449   5.641   1.178   3.733 -0.2694  2.4596  0.3898
17959THY    HM239450   5.797   1.141   3.652 -1.5954  0.2843  0.3051
17959THY    HM339451   5.774   1.300   3.718  2.3859  0.9725 -0.3683
17959THY    CA639452   5.761   1.137   3.986 -0.3710 -0.2983 -0.3441
17959THY    HA639453   5.654   1.150   3.997 -0.2225  0.5785  0.2077
17960THY      O39454   1.298   6.252   5.690 -0.2051 -0.2450 -0.1422
17960THY     HO39455   1.202   6.262   5.676 -0.7547  1.1662 -2.7332
17960THY    CA139456   1.327   6.139   5.621 -0.0193  0.3092 -0.4784
17960THY    CA239457   1.422   6.039   5.662  0.7457  0.3593 -0.7241
17960THY    CP139458   1.505   6.052   5.790  0.3678 -0.0491 -0.0240
17960THY    HP139459   1.460   6.131   5.852 -0.0514 -1.2290  0.6854
17960THY    CP239460   1.656   6.078   5.765 -0.9479  0.2977  0.0015
17960THY    HP239461   1.690   5.991   5.706  0.4420 -0.5078  1.0424
17960THY    HP339462   1.710   6.086   5.860  0.7294 -0.6009 -0.0844
17960THY    HP439463   1.671   6.165   5.700  0.8454 -0.6904 -0.9544
17960THY    CP339464   1.497   5.925   5.877  0.2949 -0.4398  0.0451
17960THY    HP539465   1.394   5.902   5.905  0.3749  0.3850  0.6595
17960THY    HP639466   1.551   5.950   5.969  1.9087 -0.2765 -3.4907
17960THY    HP739467   1.550   5.841   5.829  2.4614  0.9938  0.5104
17960THY    CA339468   1.439   5.930   5.575 -0.1582 -0.6858 -0.4194
17960THY    HA339469   1.516   5.857   5.601  1.4376  1.0172  1.7545
17960THY    CA439470   1.374   5.917   5.453 -0.1397 -0.6344  0.5140
17960THY    HA439471   1.398   5.828   5.396  1.3140 -0.3960  0.7190
17960THY    CA539472   1.283   6.012   5.416  0.1046 -0.0842 -0.3190
17960THY    CM139473   1.208   5.983   5.289  0.4035  0.3497  0.0700
17960THY    HM139474   1.228   6.064   5.218  0.2727  0.4767  0.2130
17960THY    HM239475   1.099   5.981   5.305  0.5724  1.8322  0.9867
17960THY    HM339476   1.244   5.887   5.252  0.4982  0.7006 -0.0301
17960THY    CA639477   1.256   6.128   5.505  0.2403  1.0221  1.0183
17960THY    HA639478   1.191   6.208   5.473 -0.7310  1.9110  0.6003
17961THY      O39479   3.158   5.480   6.177 -0.0927  0.2281 -0.0034
17961THY     HO39480   3.214   5.556   6.154 -0.4533 -1.3404 -0.1793
17961THY    CA139481   3.109   5.438   6.060  0.0364 -0.2155 -0.3059
17961THY    CA239482   3.013   5.336   6.057 -0.4424 -0.8664 -0.5466
17961THY    CP139483   2.951   5.287   6.191  0.2400  0.8774  0.1807
17961THY    HP139484   2.981   5.353   6.273  0.7499  0.6202  0.2722
17961THY    CP239485   2.978   5.132   6.216  0.1233  0.0630 -0.5368
17961THY    HP239486   2.946   5.104   6.317 -0.8243  0.7241  2.5446
17961THY    HP339487   3.082   5.099   6.207 -0.4148 -3.4874 -1.7492
17961THY    HP439488   2.927   5.072   6.139 -3.4542  0.4653  1.6981
17961THY    CP339489   2.799   5.297   6.203 -0.1896  0.3467 -0.5321
17961THY    HP539490   2.761   5.389   6.159  0.1956 -0.9835 -0.9940
17961THY    HP639491   2.759   5.283   6.304 -0.0479  0.6726  1.1984
17961THY    HP739492   2.740   5.224   6.148 -1.8809 -1.9803  2.3552
17961THY    CA339493   2.961   5.290   5.935 -0.5091  0.6516 -0.0138
17961THY    HA339494   2.880   5.217   5.935 -1.0305  0.3394  0.5475
17961THY    CA439495   3.008   5.335   5.820 -0.0772  0.2365 -0.4670
17961THY    HA439496   2.971   5.300   5.724  0.5380 -0.2440  0.1536
17961THY    CA539497   3.102   5.442   5.822  0.2399  0.3173 -0.4701
17961THY    CM139498   3.151   5.514   5.693  0.0063  0.0064  0.1409
17961THY    HM139499   3.250   5.474   5.667 -0.3786  0.1770 -0.9799
17961THY    HM239500   3.152   5.623   5.696  1.3959  0.0313  0.1409
17961THY    HM339501   3.091   5.490   5.605  2.6633 -2.0804  0.6997
17961THY    CA639502   3.158   5.487   5.941 -0.4125  0.6929  0.3933
17961THY    HA639503   3.229   5.569   5.939 -2.8927  1.0342  2.6667
17962THY      O39504   6.591   5.738   3.749  0.0026 -0.4855 -0.3022
17962THY     HO39505   6.667   5.799   3.755  1.4109 -1.2698 -1.8994
17962THY    CA139506   6.476   5.810   3.742  0.4170  0.1600  0.1350
17962THY    CA239507   6.353   5.753   3.773  0.3333  0.1757  0.1129
17962THY    CP139508   6.349   5.606   3.823 -0.4984  0.4143 -0.1354
17962THY    HP139509   6.446   5.559   3.805  0.9991  1.2220  2.4373
17962THY    CP239510   6.243   5.522   3.757  0.2993  0.0271 -0.2454
17962THY    HP239511   6.239   5.421   3.799  1.6682  1.8287  0.3978
17962THY    HP339512   6.273   5.515   3.652  1.5609  0.4238 -1.1375
17962THY    HP439513   6.144   5.567   3.768 -0.0908 -1.3118 -0.7391
17962THY    CP339514   6.321   5.607   3.973 -0.3379  0.3591 -0.3500
17962THY    HP539515   6.255   5.685   4.011 -0.0393  3.5296 -1.4840
17962THY    HP639516   6.418   5.633   4.018 -0.4744  1.1075 -1.0858
17962THY    HP739517   6.277   5.514   4.010 -1.3582 -1.2166 -0.5379
17962THY    CA339518   6.238   5.838   3.755 -0.4351 -0.3572  0.2367
17962THY    HA339519   6.137   5.808   3.779 -0.0234 -0.0870 -0.9935
17962THY    CA439520   6.256   5.972   3.711 -0.6189 -0.5398  0.0989
17962THY    HA439521   6.166   6.031   3.697 -0.9640  1.6914  0.2027
17962THY    CA539522   6.379   6.018   3.669 -0.2924  0.1030 -0.0208
17962THY    CM139523   6.402   6.158   3.616 -0.0660 -0.2177  0.1278
17962THY    HM139524   6.421   6.156   3.508 -0.6459 -0.3264  0.0286
17962THY    HM239525   6.469   6.223   3.673  0.9905 -2.2765  0.9472
17962THY    HM339526   6.314   6.224   3.616 -0.2509  0.0186 -0.1161
17962THY    CA639527   6.488   5.933   3.683  0.5004 -0.1598 -0.1791
17962THY    HA639528   6.586   5.973   3.659  0.0002  0.2027  1.3353
17963THY      O39529   1.726   4.478   7.563 -0.1008  0.4243 -0.1325
17963THY     HO39530   1.817   4.446   7.576  0.3130 -1.2605  0.2929
17963THY    CA139531   1.732   4.614   7.567 -0.4154  0.5666  0.0671
17963THY    CA239532   1.651   4.705   7.500 -0.6554  0.4700 -0.1666
17963THY    CP139533   1.521   4.662   7.434  0.3762  0.3231  0.8937
17963THY    HP139534   1.463   4.618   7.516 -0.6442  1.2146  3.6592
17963THY    CP239535   1.560   4.552   7.329 -0.6330  0.0555  0.5668
17963THY    HP239536   1.597   4.459   7.372  0.0193 -0.7394  0.4433
17963THY    HP339537   1.626   4.586   7.248  2.3276  1.2636 -1.8588
17963THY    HP439538   1.472   4.515   7.273  0.6758 -1.6286 -0.1330
17963THY    CP339539   1.446   4.768   7.352 -0.4769  0.0089  0.3117
17963THY    HP539540   1.504   4.800   7.264  2.8034  1.6093 -0.7777
17963THY    HP639541   1.416   4.850   7.419 -2.7774 -0.1426 -0.3331
17963THY    HP739542   1.345   4.734   7.325 -0.2675 -0.2605 -0.1070
17963THY    CA339543   1.693   4.839   7.479  0.2206 -0.1778  0.8097
17963THY    HA339544   1.638   4.904   7.411  1.4306 -1.8275  0.1638
17963THY    CA439545   1.811   4.873   7.545 -0.4422  0.6770  0.6212
17963THY    HA439546   1.844   4.976   7.530 -0.7230 -1.9978  0.4130
17963THY    CA539547   1.884   4.789   7.626  0.0156  0.3997 -0.4579
17963THY    CM139548   2.016   4.835   7.685 -0.2166  0.8971  0.5180
17963THY    HM139549   2.002   4.838   7.793  0.0543  0.9286  0.7227
17963THY    HM239550   2.032   4.939   7.653 -2.2878 -2.1225  0.0487
17963THY    HM339551   2.101   4.769   7.663 -0.8809  0.3407 -0.1741
17963THY    CA639552   1.847   4.658   7.629  0.2129 -0.7891 -0.1776
17963THY    HA639553   1.914   4.596   7.688  1.7146 -0.9274  1.2285
17964THY      O39554   2.875   1.886   2.702 -0.5578 -0.0838 -0.3109
17964THY     HO39555   2.851   1.943   2.627 -0.5295  0.1273 -0.0200
17964THY    CA139556   2.782   1.905   2.799  0.5881 -0.3154 -0.6241
17964THY    CA239557   2.769   1.814   2.907  0.1198 -0.0471  0.9683
17964THY    CP139558   2.851   1.689   2.925  0.2409  0.4313 -0.1557
17964THY    HP139559   2.908   1.672   2.834 -0.0379 -0.1098  1.5475
17964THY    CP239560   2.765   1.561   2.947 -0.1284  0.7775  0.6438
17964THY    HP239561   2.684   1.565   2.874 -0.7227  1.3391 -0.4236
17964THY    HP339562   2.723   1.554   3.048  0.9966  1.2335  0.2042
17964THY    HP439563   2.822   1.470   2.922  1.3080 -3.2240  2.4429
17964THY    CP339564   2.942   1.688   3.045 -0.9969  0.1954  0.2125
17964THY    HP539565   3.020   1.766   3.043  0.5673  1.2096 -1.2470
17964THY    HP639566   2.984   1.587   3.055 -0.2570 -0.5637  0.4336
17964THY    HP739567   2.895   1.704   3.143  0.2885  1.1121 -1.2515
17964THY    CA339568   2.674   1.846   3.011  0.3942  0.0976  1.1005
17964THY    HA339569   2.663   1.791   3.105  0.2834 -1.2739 -1.3796
17964THY    CA439570   2.592   1.960   2.994 -0.5560 -0.3946 -0.3944
17964THY    HA439571   2.521   1.991   3.070  0.4153  0.5603 -0.4329
17964THY    CA539572   2.609   2.042   2.884  1.0107  0.7571  0.0255
17964THY    CM139573   2.520   2.149   2.852 -0.2376 -0.0512 -0.6201
17964THY    HM139574   2.419   2.115   2.878 -0.6423  1.3076  1.4609
17964THY    HM239575   2.514   2.180   2.747 -0.5741  0.2020  0.2157
17964THY    HM339576   2.547   2.235   2.914  0.2326  0.1762 -0.9315
17964THY    CA639577   2.696   2.011   2.784  0.0337 -0.2495 -0.3751
17964THY    HA639578   2.710   2.078   2.700  1.1125  0.1182 -0.1320
17965THY      O39579   4.031   9.186   4.557 -0.1331  0.3507  0.1696
17965THY     HO39580   3.976   9.194   4.637 -0.4485 -0.0168  2.1025
17965THY    CA139581   4.103   9.082   4.595 -0.3474 -0.7084 -0.3795
17965THY    CA239582   4.202   9.028   4.513  0.0208  0.1564  0.1003
17965THY    CP139583   4.226   9.095   4.378 -0.2340 -0.3072  0.0045
17965THY    HP139584   4.145   9.157   4.339  0.1200 -0.0969  0.6075
17965THY    CP239585   4.253   8.999   4.262 -0.2663  0.3359 -0.2579
17965THY    HP239586   4.355   8.959   4.266 -0.2180 -0.0172 -0.1749
17965THY    HP339587   4.250   9.048   4.164 -0.6912  0.1248 -0.6986
17965THY    HP439588   4.171   8.930   4.285 -3.2915 -0.6092  2.7534
17965THY    CP339589   4.352   9.180   4.391 -0.4147  0.6309 -0.4561
17965THY    HP539590   4.385   9.216   4.293 -1.3100  0.0076 -1.2800
17965THY    HP639591   4.441   9.132   4.435 -0.6363  1.1617 -0.3825
17965THY    HP739592   4.325   9.264   4.455  0.8162  1.8603 -0.9655
17965THY    CA339593   4.264   8.907   4.554 -0.4928 -0.0934  0.9587
17965THY    HA339594   4.348   8.865   4.498  0.1824  1.2924  0.3987
17965THY    CA439595   4.241   8.857   4.682  0.5652  0.1861  0.0273
17965THY    HA439596   4.292   8.770   4.722 -0.4796  0.6127 -0.4149
17965THY    CA539597   4.146   8.919   4.768  0.0579 -0.8181  0.0313
17965THY    CM139598   4.114   8.864   4.911 -0.2900 -1.0929 -0.3972
17965THY    HM139599   4.100   8.755   4.910  2.7822  1.4376 -0.9696
17965THY    HM239600   4.030   8.912   4.962 -0.5037 -1.7191 -0.0986
17965THY    HM339601   4.201   8.884   4.975 -0.5425 -0.2178 -1.9315
17965THY    CA639602   4.075   9.029   4.721  0.3090  0.1169 -0.6112
17965THY    HA639603   4.002   9.075   4.788 -1.4843  1.9581 -5.4770
17966THY      O39604   5.231   3.242   7.336  0.6081  0.1069 -0.3849
17966THY     HO39605   5.201   3.288   7.256  0.2046  0.6477  0.3095
17966THY    CA139606   5.344   3.308   7.364 -0.1810 -0.5906  0.3293
17966THY    CA239607   5.411   3.286   7.488 -0.6649  0.3783  0.0616
17966THY    CP139608   5.350   3.192   7.592  0.3942  0.2099  0.2061
17966THY    HP139609   5.241   3.201   7.587  0.4510 -0.2791  0.6892
17966THY    CP239610   5.383   3.227   7.739  0.2320  0.2683 -0.6564
17966THY    HP239611   5.347   3.329   7.754  0.7127  1.1406 -0.6077
17966THY    HP339612   5.492   3.242   7.749  0.0680  0.7403  0.2667
17966THY    HP439613   5.348   3.148   7.807 -0.5076  0.9592  0.2525
17966THY    CP339614   5.384   3.044   7.554  0.2829 -0.0259 -0.2994
17966THY    HP539615   5.333   2.972   7.618 -0.1207 -0.0255 -0.0181
17966THY    HP639616   5.491   3.026   7.545 -0.0977 -3.1533 -1.7569
17966THY    HP739617   5.347   3.038   7.451 -1.0531  0.4279 -0.1917
17966THY    CA339618   5.537   3.348   7.513  0.5483  0.3523 -0.0918
17966THY    HA339619   5.603   3.337   7.598 -1.8561  2.2972 -0.2882
17966THY    CA439620   5.585   3.438   7.411 -0.0528 -0.7241 -0.4133
17966THY    HA439621   5.680   3.489   7.425 -0.6885  2.7948  0.0614
17966THY    CA539622   5.523   3.447   7.286 -0.2309  0.4672 -0.2340
17966THY    CM139623   5.566   3.525   7.168  0.6085 -0.9838  0.2001
17966THY    HM139624   5.494   3.606   7.149 -0.4627  2.1072  0.1134
17966THY    HM239625   5.584   3.444   7.097 -0.7042 -1.8266  0.6123
17966THY    HM339626   5.657   3.578   7.199 -0.3390 -0.2109  1.4629
17966THY    CA639627   5.398   3.389   7.272 -0.1956  0.0635 -0.1329
17966THY    HA639628   5.349   3.409   7.177 -1.4622  1.1930  2.6561
17967THY      O39629   1.564   7.059   3.638  0.5369 -0.2654 -0.1317
17967THY     HO39630   1.553   7.125   3.708 -2.5297 -0.7014 -0.0342
17967THY    CA139631   1.682   6.997   3.657  0.1011  1.0277  0.0340
17967THY    CA239632   1.715   6.886   3.575  0.0036 -0.3576  0.5541
17967THY    CP139633   1.609   6.833   3.476  0.2702  0.0431 -0.3570
17967THY    HP139634   1.539   6.915   3.458  0.4359 -2.6262 -0.7287
17967THY    CP239635   1.539   6.709   3.542  0.1123  0.3467  0.0046
17967THY    HP239636   1.438   6.703   3.502  0.1794  0.3091 -1.1240
17967THY    HP339637   1.536   6.722   3.651  2.9709  0.7267 -1.6376
17967THY    HP439638   1.591   6.614   3.529 -1.7188 -2.4222 -0.7303
17967THY    CP339639   1.657   6.804   3.335 -0.4995  0.2000  0.2731
17967THY    HP539640   1.737   6.728   3.334 -0.6325 -0.2057  0.1316
17967THY    HP639641   1.703   6.893   3.291 -1.6761  1.5726  1.5899
17967THY    HP739642   1.570   6.773   3.276  1.0421 -0.9935 -2.1818
17967THY    CA339643   1.834   6.813   3.601  0.7714  0.8042  0.1944
17967THY    HA339644   1.845   6.722   3.543  0.3683 -0.2144  0.7703
17967THY    CA439645   1.909   6.853   3.703  0.0772 -0.5916  0.3474
17967THY    HA439646   2.000   6.794   3.707  0.5971  0.1597  1.1742
17967THY    CA539647   1.873   6.955   3.793  0.0978 -0.9542 -0.1907
17967THY    CM139648   1.964   6.981   3.915 -0.3217  0.3901 -0.5154
17967THY    HM139649   1.911   7.032   3.996 -0.8282 -0.2069 -0.0713
17967THY    HM239650   2.054   7.035   3.883 -1.2499 -1.5572 -0.0486
17967THY    HM339651   2.001   6.888   3.960  1.4824 -1.0275 -0.5434
17967THY    CA639652   1.767   7.041   3.760  1.2159 -0.7496 -0.3076
17967THY    HA639653   1.747   7.121   3.831  0.8029 -0.6136 -0.5330
17968THY      O39654   3.415   6.931   4.794 -0.0077 -0.6638 -0.0650
17968THY     HO39655   3.464   6.941   4.711 -1.9903 -1.6665  2.5677
17968THY    CA139656   3.302   6.994   4.769 -0.5528  0.1733 -0.1032
17968THY    CA239657   3.190   6.978   4.856 -0.1079  0.0633 -0.0581
17968THY    CP139658   3.199   6.905   4.989 -0.1864 -0.8703 -0.0302
17968THY    HP139659   3.283   6.835   4.988  1.0163  0.3683  1.3438
17968THY    CP239660   3.080   6.808   5.011  0.0888 -0.2825 -0.5179
17968THY    HP239661   2.993   6.872   5.028  0.8308 -3.0009  1.3900
17968THY    HP339662   3.104   6.747   5.099  0.3464 -0.5375 -0.7875
17968THY    HP439663   3.078   6.750   4.918  1.3606 -0.8904  0.3599
17968THY    CP339664   3.223   6.998   5.112 -0.2932 -0.7221 -0.7577
17968THY    HP539665   3.160   7.087   5.120  1.4431  0.1005  0.4643
17968THY    HP639666   3.332   7.011   5.118 -0.1845  0.0629 -1.9147
17968THY    HP739667   3.197   6.951   5.207  1.6317  0.0053 -0.4535
17968THY    CA339668   3.065   7.037   4.814 -0.2362 -0.4080  0.2381
17968THY    HA339669   2.985   7.044   4.887  0.1852  0.1160 -0.3115
17968THY    CA439670   3.061   7.115   4.694  0.1151  0.1849  0.1469
17968THY    HA439671   2.970   7.162   4.659  1.3049 -1.3065  1.4337
17968THY    CA539672   3.180   7.130   4.612 -0.0430  0.5503  1.1462
17968THY    CM139673   3.155   7.205   4.491 -0.3692  0.5000 -0.2468
17968THY    HM139674   3.063   7.165   4.446 -1.3074  2.8193 -0.8653
17968THY    HM239675   3.239   7.192   4.422  0.2922  1.3742 -0.6946
17968THY    HM339676   3.128   7.310   4.511 -0.5799 -0.0162 -0.1995
17968THY    CA639677   3.302   7.074   4.654  0.1662 -0.3287  0.5596
17968THY    HA639678   3.386   7.071   4.585 -0.9143 -1.6353 -1.0777
17969THY      O39679   1.800   0.122   3.106 -0.0011  0.1741  0.3507
17969THY     HO39680   1.882   0.093   3.150  0.4296  0.1757  1.5033
17969THY    CA139681   1.838   0.221   3.021 -0.6070  0.7977  0.0172
17969THY    CA239682   1.754   0.331   2.997 -0.4934  0.1369 -0.3505
17969THY    CP139683   1.614   0.332   3.045  0.6684 -0.2190  0.8210
17969THY    HP139684   1.607   0.274   3.138 -1.2332 -0.9360 -0.2311
17969THY    CP239685   1.535   0.256   2.938  0.6291 -0.0357 -0.8473
17969THY    HP239686   1.575   0.156   2.917 -0.4293 -0.0923 -1.2708
17969THY    HP339687   1.528   0.309   2.842  0.3782 -1.7296 -3.7108
17969THY    HP439688   1.435   0.253   2.982  1.0639  1.2006  1.0458
17969THY    CP339689   1.558   0.465   3.065  0.2304 -0.3963  0.1743
17969THY    HP539690   1.532   0.528   2.979  0.9332 -1.3754 -0.8384
17969THY    HP639691   1.633   0.512   3.130  0.7823 -1.1353  0.3196
17969THY    HP739692   1.462   0.466   3.120  0.6471  0.3464  0.5094
17969THY    CA339693   1.809   0.445   2.926  0.3337  0.6487  0.3904
17969THY    HA339694   1.752   0.537   2.916  1.4783 -1.0116  0.9734
17969THY    CA439695   1.937   0.436   2.872  0.5503  0.2703 -0.2687
17969THY    HA439696   1.983   0.523   2.827  1.4450  1.1350 -0.2785
17969THY    CA539697   2.016   0.321   2.899 -0.7632  0.4812 -0.3656
17969THY    CM139698   2.154   0.307   2.837  0.1003 -0.2504  0.2070
17969THY    HM139699   2.196   0.212   2.872  0.8106  0.3138  0.7149
17969THY    HM239700   2.225   0.378   2.883  0.4189  1.9088 -1.4161
17969THY    HM339701   2.172   0.316   2.729 -0.0358 -0.2331  0.7199
17969THY    CA639702   1.975   0.215   2.974  0.1536  0.3698  0.1651
17969THY    HA639703   2.044   0.132   2.986  1.0765 -2.0144  0.4971
17970THY      O39704   8.021   0.810   4.337 -0.4818  0.4109 -0.0654
17970THY     HO39705   8.104   0.859   4.350  0.3339  0.1904 -1.3428
17970THY    CA139706   7.922   0.860   4.416 -0.1857 -1.0741  0.0776
17970THY    CA239707   7.810   0.788   4.455 -0.6133 -0.4044 -0.9575
17970THY    CP139708   7.803   0.644   4.417 -0.3896  1.4850  0.0542
17970THY    HP139709   7.902   0.597   4.426 -0.0858 -0.6317  0.1862
17970THY    CP239710   7.766   0.611   4.272 -0.2568  0.1654 -0.0894
17970THY    HP239711   7.664   0.649   4.258 -0.1593  3.2252  1.6677
17970THY    HP339712   7.774   0.504   4.250 -0.1827  1.4437 -0.3621
17970THY    HP439713   7.832   0.663   4.202  1.9231  2.8931  1.0806
17970THY    CP339714   7.720   0.550   4.505  0.0863 -0.2909 -0.1460
17970THY    HP539715   7.612   0.543   4.488  0.2616 -0.9690 -1.5823
17970THY    HP639716   7.734   0.596   4.604  0.4815  0.1109 -1.1056
17970THY    HP739717   7.765   0.450   4.509  1.2461 -3.3933  0.1291
17970THY    CA339718   7.706   0.851   4.532  0.1039  0.8352 -0.3197
17970THY    HA339719   7.620   0.806   4.581  0.1716  2.0610  0.7997
17970THY    CA439720   7.731   0.992   4.557 -0.3471 -0.7178  0.1519
17970THY    HA439721   7.662   1.048   4.620  0.0026 -0.8223  0.7030
17970THY    CA539722   7.843   1.063   4.515 -0.6145  0.0261  0.2817
17970THY    CM139723   7.869   1.207   4.545 -0.2633  0.6924 -0.2461
17970THY    HM139724   7.793   1.261   4.487  0.0025 -0.6116 -1.2106
17970THY    HM239725   7.973   1.227   4.518 -0.1824  0.0436 -1.4459
17970THY    HM339726   7.852   1.223   4.652 -0.9919  0.4358  0.8215
17970THY    CA639727   7.940   0.993   4.446 -0.1428  0.0323 -0.4657
17970THY    HA639728   8.027   1.047   4.411 -1.3419  1.2355  2.5400
17971THY      O39729   6.742   2.840   3.397  0.4123  0.2963  0.3150
17971THY     HO39730   6.666   2.829   3.456  0.5319  0.3260 -0.4063
17971THY    CA139731   6.699   2.786   3.282 -0.0422 -0.1952 -0.1639
17971THY    CA239732   6.783   2.725   3.179  0.1729  0.3867 -0.2406
17971THY    CP139733   6.933   2.750   3.174  0.4997  0.0619  0.0703
17971THY    HP139734   6.963   2.797   3.268 -1.5916  1.2429 -0.7623
17971THY    CP239735   6.980   2.840   3.053  0.4622  0.0283 -0.5914
17971THY    HP239736   6.913   2.927   3.050  2.6713  2.8712  1.3689
17971THY    HP339737   6.972   2.793   2.954 -0.7146 -1.7687  2.9924
17971THY    HP439738   7.078   2.889   3.055 -0.6509  0.2008  1.7958
17971THY    CP339739   7.007   2.614   3.163 -0.5947  0.4100 -0.6279
17971THY    HP539740   6.988   2.568   3.066 -0.4929 -1.0303  2.1911
17971THY    HP639741   6.996   2.546   3.249  2.7269  0.6548 -0.9895
17971THY    HP739742   7.116   2.616   3.159 -0.6080 -0.8761 -1.5078
17971THY    CA339743   6.724   2.669   3.066 -0.0411 -0.1045  0.1872
17971THY    HA339744   6.784   2.619   2.990 -0.1860  0.1803 -0.4372
17971THY    CA439745   6.584   2.656   3.071 -0.1565  0.5157 -0.2333
17971THY    HA439746   6.537   2.599   2.992  0.4512  0.8498 -1.2095
17971THY    CA539747   6.504   2.712   3.167 -0.0791 -0.1623 -0.1370
17971THY    CM139748   6.357   2.697   3.157 -0.4442  0.5483 -0.1706
17971THY    HM139749   6.310   2.776   3.097  0.1906  0.3676  0.0833
17971THY    HM239750   6.309   2.708   3.254 -0.4392  0.3367  2.4900
17971THY    HM339751   6.333   2.602   3.109 -1.4166  0.8269 -0.0763
17971THY    CA639752   6.561   2.771   3.282 -0.0032  0.7123 -0.3443
17971THY    HA639753   6.502   2.808   3.365 -1.6246  0.2182 -1.6886
17972THY      O39754   1.984   3.721   5.575 -0.9932 -0.0926 -0.0014
17972THY     HO39755   2.002   3.700   5.482  0.2060  0.4029 -1.3140
17972THY    CA139756   2.058   3.632   5.641 -0.1574 -0.0788  0.1440
17972THY    CA239757   1.997   3.560   5.741 -0.1677 -0.2413 -0.4443
17972THY    CP139758   1.848   3.583   5.776  0.7405 -0.2093 -0.9305
17972THY    HP139759   1.785   3.606   5.689  1.1787 -0.2965 -0.0134
17972THY    CP239760   1.848   3.701   5.863 -0.0655 -0.3642 -0.5411
17972THY    HP239761   1.886   3.784   5.803  1.0968  1.3681  0.2506
17972THY    HP339762   1.916   3.679   5.946 -0.2692 -0.3138 -0.9986
17972THY    HP439763   1.748   3.720   5.906 -0.9496 -2.2477 -0.7577
17972THY    CP339764   1.768   3.470   5.843 -0.2403  0.0615 -0.2585
17972THY    HP539765   1.746   3.402   5.760 -2.0944 -1.0118  1.5568
17972THY    HP639766   1.673   3.502   5.887 -0.2809  0.3705 -0.7925
17972THY    HP739767   1.832   3.429   5.922  1.8871 -0.9309  0.9819
17972THY    CA339768   2.073   3.454   5.797  0.4203  0.0426 -0.4795
17972THY    HA339769   2.034   3.378   5.865  3.0514  0.9737 -1.1147
17972THY    CA439770   2.202   3.435   5.762 -0.4975  0.4868  0.4565
17972THY    HA439771   2.258   3.346   5.790  0.9865 -0.8460  0.9194
17972THY    CA539772   2.263   3.510   5.662  0.4701 -0.0195 -0.0010
17972THY    CM139773   2.405   3.494   5.624 -0.0991  0.0141 -1.0168
17972THY    HM139774   2.432   3.391   5.648  1.2354 -1.7444 -1.1321
17972THY    HM239775   2.471   3.573   5.662 -2.7502  1.3963  0.6858
17972THY    HM339776   2.418   3.499   5.515  0.9648  0.0224 -2.7099
17972THY    CA639777   2.184   3.602   5.591  0.4741 -0.6704  0.4632
17972THY    HA639778   2.221   3.663   5.510  0.6225 -0.3131  0.8607
17973THY      O39779   4.779   4.700   2.278  0.8086  0.3032 -0.4093
17973THY     HO39780   4.715   4.684   2.349 -2.7103 -2.3641  0.4705
17973THY    CA139781   4.726   4.629   2.179  0.4020  0.5189  0.0285
17973THY    CA239782   4.675   4.696   2.065 -0.0216  0.1610  0.6529
17973THY    CP139783   4.693   4.844   2.040  0.3612  0.3740 -0.0995
17973THY    HP139784   4.789   4.878   2.080  1.0629 -0.5504 -0.9209
17973THY    CP239785   4.575   4.919   2.113  0.1160 -0.2660  0.0975
17973THY    HP239786   4.476   4.890   2.075  0.1802  0.0836 -0.5994
17973THY    HP339787   4.592   5.027   2.104  1.8573  0.5053 -0.0921
17973THY    HP439788   4.596   4.885   2.215 -0.8818 -0.0829 -0.0007
17973THY    CP339789   4.694   4.893   1.892  0.0276  0.0209  0.4697
17973THY    HP539790   4.596   4.874   1.848  1.0201 -1.6535 -1.2143
17973THY    HP639791   4.769   4.834   1.837  0.2808  0.4733  0.3648
17973THY    HP739792   4.711   5.000   1.877 -0.0721 -2.2694  0.2276
17973THY    CA339793   4.606   4.611   1.976 -0.4511 -0.0912 -0.3258
17973THY    HA339794   4.567   4.656   1.885  0.5107 -2.1322 -3.3283
17973THY    CA439795   4.599   4.474   1.987  0.3433  0.5628 -1.2061
17973THY    HA439796   4.536   4.420   1.917  0.6115 -1.2663  0.7511
17973THY    CA539797   4.657   4.412   2.097 -0.3275 -0.3680 -0.6263
17973THY    CM139798   4.627   4.263   2.114 -0.0198 -0.9049  0.9069
17973THY    HM139799   4.544   4.228   2.053 -0.4024  0.3138 -0.4261
17973THY    HM239800   4.599   4.245   2.219  2.7859 -0.3407 -0.8428
17973THY    HM339801   4.724   4.215   2.093 -0.4187 -2.5255  0.7498
17973THY    CA639802   4.712   4.490   2.200  0.4062  0.8857  0.0183
17973THY    HA639803   4.750   4.453   2.295  2.2579  0.7074  1.3373
17974THY      O39804   7.955   6.275   6.230  0.7088  0.3425 -0.5937
17974THY     HO39805   7.969   6.186   6.195  1.0584  0.6739 -0.6744
17974THY    CA139806   7.836   6.315   6.178 -0.1950  0.5023  0.0189
17974THY    CA239807   7.777   6.438   6.211  0.3713 -0.1056  0.4668
17974THY    CP139808   7.834   6.523   6.319 -0.1427  0.2553  0.0216
17974THY    HP139809   7.943   6.507   6.323 -0.1140 -0.3756  0.0616
17974THY    CP239810   7.779   6.473   6.449  0.3883 -1.1278 -0.7638
17974THY    HP239811   7.671   6.458   6.438  0.2698 -1.0489 -0.0019
17974THY    HP339812   7.804   6.539   6.533 -0.6945  0.5607 -2.4130
17974THY    HP439813   7.818   6.375   6.477  2.4788  3.0127  0.9939
17974THY    CP339814   7.827   6.676   6.297 -0.1607  0.5716  0.3473
17974THY    HP539815   7.858   6.701   6.194  2.3392 -0.5976 -5.6530
17974THY    HP639816   7.880   6.737   6.371 -1.8153 -0.4411  3.2128
17974THY    HP739817   7.730   6.722   6.317  0.8561 -0.0264  2.8986
17974THY    CA339818   7.646   6.465   6.164 -0.3445  0.5551  0.2486
17974THY    HA339819   7.583   6.550   6.188 -0.4993 -2.2515  0.9946
17974THY    CA439820   7.585   6.379   6.075 -0.0396  0.1525 -0.0719
17974THY    HA439821   7.486   6.384   6.031 -0.1467  0.2106 -1.3814
17974THY    CA539822   7.654   6.264   6.035  0.6123 -0.2706 -1.2448
17974THY    CM139823   7.582   6.164   5.948 -0.0315  0.2717 -0.4037
17974THY    HM139824   7.512   6.103   6.006  0.2770  1.6812  0.5405
17974THY    HM239825   7.651   6.087   5.912 -0.3080 -0.0862 -0.4848
17974THY    HM339826   7.537   6.214   5.861  0.8255  0.4897  0.7861
17974THY    CA639827   7.779   6.234   6.079 -0.2820  0.2174 -0.3476
17974THY    HA639828   7.836   6.148   6.046  0.3543  1.1108 -0.2832
17975THY      O39829   4.279   5.399   5.228 -0.1845  0.0242  0.3132
17975THY     HO39830   4.223   5.353   5.164  0.2934 -0.3523  0.2441
17975THY    CA139831   4.198   5.451   5.320 -0.1250  0.2336  0.0074
17975THY    CA239832   4.227   5.456   5.461 -0.0750  0.7298 -0.4368
17975THY    CP139833   4.359   5.405   5.514  0.1113  0.2171  0.3699
17975THY    HP139834   4.401   5.319   5.462 -0.1106  1.4889 -0.5359
17975THY    CP239835   4.342   5.351   5.659 -0.0018  0.3571 -0.5088
17975THY    HP239836   4.338   5.425   5.740 -0.2587 -0.1830  0.0789
17975THY    HP339837   4.428   5.284   5.671  2.0323  0.0862  1.8737
17975THY    HP439838   4.250   5.292   5.664 -0.5322 -1.5927  0.0606
17975THY    CP339839   4.470   5.511   5.497 -0.2134 -0.7606 -0.6298
17975THY    HP539840   4.566   5.468   5.529 -0.5410 -1.9435 -2.3555
17975THY    HP639841   4.440   5.605   5.545  0.7893 -1.1500 -0.0863
17975THY    HP739842   4.474   5.533   5.389 -0.7391 -0.6607  0.0033
17975THY    CA339843   4.130   5.532   5.538  0.3926 -0.3128  0.1617
17975THY    HA339844   4.144   5.520   5.645 -0.9380 -0.2871 -1.6389
17975THY    CA439845   4.023   5.616   5.478 -0.2608 -0.1092  0.3351
17975THY    HA439846   3.953   5.676   5.536  1.0815  0.0951  1.7666
17975THY    CA539847   4.005   5.604   5.333  0.0563  0.1658 -0.4352
17975THY    CM139848   3.896   5.682   5.262  0.3524 -0.5088  0.9885
17975THY    HM139849   3.807   5.618   5.269  0.0116  1.4629  1.6098
17975THY    HM239850   3.915   5.698   5.156  2.3523 -0.7631 -2.1961
17975THY    HM339851   3.882   5.774   5.320  3.9463  0.1182  1.2826
17975THY    CA639852   4.092   5.525   5.261 -0.2178  0.0302 -0.0987
17975THY    HA639853   4.085   5.524   5.152 -1.9670  0.0747 -2.5288
17976THY      O39854   7.504   8.575   6.028  0.2524 -0.2291  0.2194
17976THY     HO39855   7.461   8.656   5.996  0.0431 -1.6807 -0.4257
17976THY    CA139856   7.560   8.599   6.140 -0.8660 -0.3881  0.2050
17976THY    CA239857   7.556   8.507   6.251  0.2757  0.3400 -0.3965
17976THY    CP139858   7.495   8.363   6.232 -0.1705 -0.4677  0.4976
17976THY    HP139859   7.528   8.333   6.131  0.1926 -1.0049  2.5184
17976THY    CP239860   7.349   8.374   6.246  0.1432 -0.5490  0.5908
17976THY    HP239861   7.307   8.447   6.176 -1.8297 -0.1975 -0.1554
17976THY    HP339862   7.326   8.413   6.346 -0.6275  0.5262 -2.4158
17976THY    HP439863   7.304   8.278   6.220 -2.2597 -0.1853  1.5598
17976THY    CP339864   7.551   8.252   6.323  0.5944 -0.7118  0.0159
17976THY    HP539865   7.507   8.288   6.417  0.7406 -1.5641  2.6610
17976THY    HP639866   7.661   8.253   6.326  0.6816 -2.5865  0.0150
17976THY    HP739867   7.512   8.156   6.290 -0.4876 -1.7559  0.7899
17976THY    CA339868   7.621   8.551   6.370  0.2682  0.3328 -0.6162
17976THY    HA339869   7.623   8.484   6.456 -1.8367  1.3706  0.5529
17976THY    CA439870   7.678   8.678   6.379 -0.2443 -0.3580 -0.0859
17976THY    HA439871   7.705   8.721   6.476 -0.7208 -0.4963  0.5403
17976THY    CA539872   7.690   8.758   6.269 -0.1345 -0.3667 -0.0024
17976THY    CM139873   7.729   8.898   6.288  0.2462  0.1776 -0.2083
17976THY    HM139874   7.662   8.945   6.360 -0.6944 -1.0964  0.4727
17976THY    HM239875   7.727   8.955   6.194  1.0252 -0.6092 -1.4098
17976THY    HM339876   7.827   8.912   6.336  0.2427 -0.4354  2.5031
17976THY    CA639877   7.637   8.718   6.148  0.6704 -0.2054  0.6762
17976THY    HA639878   7.646   8.786   6.064  2.7827 -0.8905 -0.3370
17977THY      O39879   8.238   8.562   4.242  0.3439  0.1760  0.0798
17977THY     HO39880   8.206   8.643   4.284 -0.4702 -0.0075 -0.1303
17977THY    CA139881   8.192   8.578   4.116 -0.8881  0.9970  0.6054
17977THY    CA239882   8.185   8.466   4.029  0.4533  0.1531  0.0963
17977THY    CP139883   8.230   8.325   4.082 -0.7352 -0.0134 -0.2745
17977THY    HP139884   8.244   8.341   4.189 -2.5121 -0.1823  3.1934
17977THY    CP239885   8.362   8.273   4.013 -0.0153  0.4954  0.1924
17977THY    HP239886   8.397   8.182   4.064  1.0597 -1.7791 -0.7528
17977THY    HP339887   8.430   8.354   4.040 -0.6824  0.7193  0.6870
17977THY    HP439888   8.362   8.257   3.904 -0.1478  0.3716  0.9891
17977THY    CP339889   8.130   8.215   4.067  0.0275  0.1992  1.1629
17977THY    HP539890   8.166   8.133   4.130 -0.7770  2.1385  2.2271
17977THY    HP639891   8.133   8.171   3.967  0.8804  1.4312 -1.8177
17977THY    HP739892   8.028   8.237   4.103  0.3039  3.1837 -1.8117
17977THY    CA339893   8.135   8.489   3.895  0.0764 -0.0261  0.3330
17977THY    HA339894   8.153   8.409   3.825 -0.2346  0.5884 -0.2800
17977THY    CA439895   8.097   8.623   3.865 -0.5919  0.4034  0.6395
17977THY    HA439896   8.071   8.639   3.761  0.5722 -0.0560 -0.2829
17977THY    CA539897   8.095   8.727   3.956  0.0385  0.0915 -0.3455
17977THY    CM139898   8.052   8.863   3.907 -0.7790  0.7031 -0.4858
17977THY    HM139899   8.079   8.871   3.801  0.1269  0.8558 -1.3013
17977THY    HM239900   8.094   8.950   3.958 -0.0713  1.3704 -1.2027
17977THY    HM339901   7.942   8.872   3.909 -0.6201  2.2358  1.9513
17977THY    CA639902   8.141   8.704   4.084  0.1478  0.1306  0.1297
17977THY    HA639903   8.150   8.782   4.159 -1.8960  0.2385  0.3287
17978THY      O39904   5.223   3.779   3.249  0.3701 -0.1867 -0.5484
17978THY     HO39905   5.291   3.797   3.315  0.9693 -1.1097  0.7152
17978THY    CA139906   5.138   3.881   3.264  0.3647 -0.3064  0.4471
17978THY    CA239907   4.995   3.860   3.250  0.1431  0.0188 -0.1255
17978THY    CP139908   4.936   3.730   3.188  0.4215  0.1828 -0.3870
17978THY    HP139909   4.994   3.640   3.210 -0.3853  0.8265 -0.7595
17978THY    CP239910   4.937   3.750   3.037 -0.6874 -0.3552 -0.2049
17978THY    HP239911   4.920   3.652   2.992  0.9507 -1.6086  0.0412
17978THY    HP339912   5.040   3.772   3.007 -0.0445  0.3489 -2.0787
17978THY    HP439913   4.873   3.833   3.005 -0.5804  1.8502  0.8194
17978THY    CP339914   4.794   3.705   3.247  0.3738 -0.4117 -0.2438
17978THY    HP539915   4.765   3.601   3.227 -0.0767 -0.8619 -0.0321
17978THY    HP639916   4.723   3.768   3.193  1.9350 -2.9185 -0.4770
17978THY    HP739917   4.796   3.710   3.357 -0.4829 -0.2395 -2.3115
17978THY    CA339918   4.914   3.976   3.263  0.3484 -1.0367 -0.1576
17978THY    HA339919   4.807   3.969   3.244  0.0590 -0.1345  1.3961
17978THY    CA439920   4.971   4.102   3.293  0.4331 -0.7192  0.4923
17978THY    HA439921   4.903   4.187   3.301 -0.7182 -0.4613 -0.4295
17978THY    CA539922   5.114   4.110   3.310 -0.6103  0.0722 -0.7661
17978THY    CM139923   5.173   4.241   3.352  0.0605  0.8417 -0.2435
17978THY    HM139924   5.252   4.263   3.279  1.3197  1.2692 -2.9530
17978THY    HM239925   5.224   4.230   3.448 -1.0759  1.7319  1.8140
17978THY    HM339926   5.104   4.324   3.368  0.2146  2.8773 -0.4613
17978THY    CA639927   5.197   4.000   3.294 -0.0259 -0.4055  0.7325
17978THY    HA639928   5.304   4.009   3.313  0.1090 -0.6761 -0.1854
17979THY      O39929   2.158   3.376   6.606  0.4956 -0.3020  0.0237
17979THY     HO39930   2.090   3.438   6.638  0.5970 -2.1338  1.1578
17979THY    CA139931   2.158   3.389   6.474 -0.4271  0.0179  0.1332
17979THY    CA239932   2.276   3.370   6.401  0.2309  0.2111  0.0615
17979THY    CP139933   2.405   3.323   6.478 -0.7383  0.1340  0.0254
17979THY    HP139934   2.375   3.266   6.567 -3.8444 -1.3951 -0.9424
17979THY    CP239935   2.491   3.443   6.527 -0.0202 -0.3223  0.4264
17979THY    HP239936   2.523   3.507   6.444 -0.2482  0.8477  2.1174
17979THY    HP339937   2.576   3.412   6.589 -1.0525  0.7354 -0.3843
17979THY    HP439938   2.424   3.514   6.577 -2.3824 -1.7283 -0.6948
17979THY    CP339939   2.494   3.247   6.380  0.1038 -0.6594  0.2046
17979THY    HP539940   2.541   3.322   6.316  0.6240  0.9887  1.3474
17979THY    HP639941   2.438   3.173   6.323  0.4564  1.1507 -1.5591
17979THY    HP739942   2.575   3.192   6.430 -0.6048  0.0405 -0.2245
17979THY    CA339943   2.271   3.387   6.263 -0.5788 -0.4012  0.2555
17979THY    HA339944   2.360   3.373   6.201  0.1076  0.6897 -0.3278
17979THY    CA439945   2.147   3.408   6.196 -0.3276 -0.7388 -0.4689
17979THY    HA439946   2.145   3.413   6.087  1.7141 -0.8265 -0.5898
17979THY    CA539947   2.035   3.445   6.272  0.7868  0.3930  0.3429
17979THY    CM139948   1.903   3.468   6.198  0.5561  0.5715 -0.1385
17979THY    HM139949   1.886   3.378   6.138  0.9072  0.0211  0.1547
17979THY    HM239950   1.915   3.553   6.129 -0.3025  0.8813  0.2554
17979THY    HM339951   1.811   3.466   6.257  0.0002 -0.2816 -1.1846
17979THY    CA639952   2.038   3.426   6.411 -0.4389  0.1703 -0.0208
17979THY    HA639953   1.950   3.440   6.472 -0.6695 -0.5933  2.1429
17980THY      O39954   7.753   4.823   6.365  0.3372  0.0364  0.1709
17980THY     HO39955   7.846   4.845   6.345 -0.7058 -3.4390  2.2842
17980THY    CA139956   7.715   4.753   6.261 -0.6040  0.1157 -0.9649
17980THY    CA239957   7.633   4.640   6.272 -0.0327  0.1779  0.6523
17980THY    CP139958   7.599   4.584   6.406  0.1147  0.3636 -0.2826
17980THY    HP139959   7.587   4.663   6.481  3.3012  1.2246 -0.5124
17980THY    CP239960   7.714   4.492   6.461 -0.4129  0.1320  0.0320
17980THY    HP239961   7.741   4.402   6.405 -1.6483  0.3174 -0.4740
17980THY    HP339962   7.680   4.454   6.558  0.9142  0.6136  0.0470
17980THY    HP439963   7.806   4.548   6.480 -0.2624  3.4746 -1.1148
17980THY    CP339964   7.466   4.500   6.409  0.4290 -0.2745  0.5250
17980THY    HP539965   7.484   4.392   6.401 -1.5253  1.6679 -0.0147
17980THY    HP639966   7.397   4.543   6.335  0.8644  0.8895  3.4655
17980THY    HP739967   7.410   4.510   6.503  0.4719 -0.0787 -0.8827
17980THY    CA339968   7.605   4.569   6.155 -0.0961  0.2996 -0.9772
17980THY    HA339969   7.545   4.480   6.167 -0.3490  0.5974 -0.7683
17980THY    CA439970   7.649   4.620   6.026 -0.6844  0.2247  0.2618
17980THY    HA439971   7.618   4.559   5.941 -3.5544  2.5407 -1.8195
17980THY    CA539972   7.725   4.736   6.011 -0.7068 -0.1786 -0.5125
17980THY    CM139973   7.761   4.785   5.872  0.1227 -0.5129  0.8622
17980THY    HM139974   7.818   4.709   5.817 -0.0928 -1.8880  1.6707
17980THY    HM239975   7.825   4.874   5.867 -0.1853 -0.4606  1.0871
17980THY    HM339976   7.665   4.791   5.820 -0.2665  0.1111  0.1973
17980THY    CA639977   7.768   4.804   6.133 -0.0681 -0.5495 -0.5559
17980THY    HA639978   7.841   4.885   6.133 -0.6332  0.4369 -0.0210
17981THY      O39979   2.069   8.822   4.448  0.4932  0.4239  0.0518
17981THY     HO39980   2.032   8.829   4.359 -0.0026  0.6176 -0.0908
17981THY    CA139981   1.967   8.874   4.521 -0.1432 -0.0189  0.0794
17981THY    CA239982   1.949   8.849   4.659  0.0982  0.6380  0.1542
17981THY    CP139983   2.051   8.771   4.736  0.0736 -0.3619  0.4660
17981THY    HP139984   2.128   8.723   4.675 -0.6592 -0.6491 -0.3537
17981THY    CP239985   1.992   8.651   4.819  0.3715  0.1376 -0.1759
17981THY    HP239986   1.957   8.565   4.761  0.2713  1.7638 -1.2892
17981THY    HP339987   1.910   8.672   4.889 -0.1521 -0.0234 -1.5518
17981THY    HP439988   2.072   8.621   4.888 -0.8739  1.7787  0.1592
17981THY    CP339989   2.110   8.868   4.840  0.2523 -0.1044 -0.2935
17981THY    HP539990   2.029   8.897   4.908  0.3630  0.2983 -0.9103
17981THY    HP639991   2.145   8.962   4.796 -1.2146  1.6495  1.1567
17981THY    HP739992   2.189   8.821   4.900 -0.3420  0.0726 -1.1082
17981THY    CA339993   1.839   8.904   4.729  0.2613  0.1434 -0.1711
17981THY    HA339994   1.817   8.875   4.831  3.5381  0.2643 -2.9676
17981THY    CA439995   1.761   9.001   4.665 -0.0034 -0.7949  0.2388
17981THY    HA439996   1.688   9.053   4.726 -0.2292 -1.2467  0.4521
17981THY    CA539997   1.772   9.022   4.529  0.2370 -0.0349  0.5268
17981THY    CM139998   1.681   9.116   4.451 -0.0128  0.2984 -0.1333
17981THY    HM139999   1.613   9.174   4.515 -0.6197 -1.3866  1.0744
17981THY    HM240000   1.624   9.063   4.374  1.2751  0.8977 -2.5787
17981THY    HM340001   1.741   9.198   4.410  0.2775  1.0394  0.0405
17981THY    CA640002   1.873   8.949   4.456  0.2392  0.1695  0.0822
17981THY    HA640003   1.875   8.958   4.348 -2.6580 -0.1500 -1.6335
17982THY      O40004   2.833   7.811   2.795 -0.0349  0.0556 -0.6027
17982THY     HO40005   2.868   7.859   2.873  2.0056 -0.7516 -0.6752
17982THY    CA140006   2.699   7.850   2.783 -0.2784  0.8789  0.6637
17982THY    CA240007   2.622   7.823   2.668 -0.4095 -0.2909  0.6326
17982THY    CP140008   2.675   7.730   2.551  0.0628 -0.1090 -0.2917
17982THY    HP140009   2.775   7.696   2.579  0.4315 -2.9349 -1.8069
17982THY    CP240010   2.685   7.805   2.425 -0.6555 -0.2462 -0.7562
17982THY    HP240011   2.743   7.897   2.438 -3.5603  0.6440  1.0966
17982THY    HP340012   2.588   7.852   2.406 -0.9902  0.1903 -1.2681
17982THY    HP440013   2.728   7.752   2.339  1.4867  1.4197 -1.8665
17982THY    CP340014   2.593   7.601   2.529 -0.2277 -0.3329 -0.5250
17982THY    HP540015   2.611   7.526   2.607  0.8117  0.7925  0.8572
17982THY    HP640016   2.617   7.564   2.428  1.3372 -0.0633 -0.3293
17982THY    HP740017   2.485   7.618   2.532 -0.2638 -0.8270 -0.6479
17982THY    CA340018   2.488   7.874   2.658 -0.3379  0.0974 -0.2023
17982THY    HA340019   2.428   7.837   2.576 -2.3708  0.1991  2.5140
17982THY    CA440020   2.434   7.946   2.762  0.1480  0.4421  0.2413
17982THY    HA440021   2.329   7.971   2.773  0.6395  4.9458  1.0899
17982THY    CA540022   2.513   7.978   2.867  0.0572  0.2774 -0.7122
17982THY    CM140023   2.456   8.069   2.969 -0.5844  0.4784  0.7193
17982THY    HM140024   2.423   8.164   2.925 -1.9610 -1.1775 -0.4582
17982THY    HM240025   2.524   8.081   3.055 -1.2530  1.4620 -1.8271
17982THY    HM340026   2.366   8.024   3.013 -1.6242  0.2037  2.4459
17982THY    CA640027   2.641   7.926   2.882 -0.0270  0.3507 -0.1908
17982THY    HA640028   2.698   7.953   2.971 -2.3019  0.9162  3.3270
17983THY      O40029   1.254   5.249   5.470  0.8623 -0.3170 -0.0856
17983THY     HO40030   1.231   5.163   5.433  1.1066 -0.2863 -0.1648
17983THY    CA140031   1.345   5.228   5.564  0.3505  0.3165 -0.5629
17983THY    CA240032   1.360   5.323   5.672 -0.1778  0.5865 -0.0882
17983THY    CP140033   1.272   5.449   5.690  0.1145 -0.5007 -0.0150
17983THY    HP140034   1.225   5.469   5.593 -2.2210  0.3512 -1.0319
17983THY    CP240035   1.340   5.575   5.745 -0.4837  0.0959 -0.1556
17983THY    HP240036   1.266   5.654   5.726 -0.0061  0.8104  0.4758
17983THY    HP340037   1.432   5.599   5.691 -1.6429 -1.1890  1.6656
17983THY    HP440038   1.359   5.571   5.853 -0.1390  0.0044 -0.9697
17983THY    CP340039   1.152   5.430   5.783  0.0919 -1.0021  0.4662
17983THY    HP540040   1.077   5.508   5.769  0.8518 -0.2980  1.3470
17983THY    HP640041   1.189   5.430   5.886  0.2089 -1.0280 -0.7891
17983THY    HP740042   1.108   5.331   5.766 -0.0603  2.5228 -0.1883
17983THY    CA340043   1.463   5.308   5.759 -0.5265  0.0121  0.0822
17983THY    HA340044   1.486   5.381   5.837 -1.2708 -0.7635  1.1746
17983THY    CA440045   1.549   5.195   5.747  0.4793 -0.4166 -0.9281
17983THY    HA440046   1.628   5.187   5.821  2.8958 -2.6241  0.8253
17983THY    CA540047   1.532   5.105   5.643  0.2572 -0.0248  1.0491
17983THY    CM140048   1.631   4.983   5.630 -0.3729  0.2877 -0.6534
17983THY    HM140049   1.721   5.007   5.572 -0.6586  0.5074  1.0617
17983THY    HM240050   1.591   4.890   5.587  1.6530 -1.7885 -0.6609
17983THY    HM340051   1.674   4.965   5.729 -2.4996  1.1224 -1.3803
17983THY    CA640052   1.430   5.126   5.552  0.4814  0.3795  0.0115
17983THY    HA640053   1.435   5.063   5.463 -0.4540  1.6606 -1.9958
17984THY      O40054   4.687   7.233   4.580  0.3295 -0.1167 -0.3276
17984THY     HO40055   4.599   7.193   4.591 -1.1983 -0.4005  2.6354
17984THY    CA140056   4.706   7.299   4.699  0.0515 -0.3364  0.0491
17984THY    CA240057   4.748   7.434   4.710 -0.4136  0.9992 -0.7249
17984THY    CP140058   4.779   7.516   4.587 -0.1076 -0.0073  0.1826
17984THY    HP140059   4.804   7.448   4.505 -0.8637  0.2876 -0.4579
17984THY    CP240060   4.906   7.595   4.608 -0.5088  0.3858 -0.0254
17984THY    HP240061   4.896   7.680   4.676 -0.5286 -1.5550  1.6047
17984THY    HP340062   4.947   7.633   4.513 -0.3438  0.1351 -0.8216
17984THY    HP440063   4.987   7.529   4.642 -0.4345  0.6677  0.2071
17984THY    CP340064   4.654   7.599   4.563 -0.4611 -0.3924  0.8510
17984THY    HP540065   4.658   7.667   4.477  1.4596 -2.1898 -1.3631
17984THY    HP640066   4.622   7.661   4.648  0.3550  0.2811  0.3710
17984THY    HP740067   4.571   7.529   4.547 -0.0213  1.1251 -0.0621
17984THY    CA340068   4.743   7.493   4.836 -0.6616 -0.3296  0.2763
17984THY    HA340069   4.769   7.597   4.849  0.1944 -0.6115  0.1081
17984THY    CA440070   4.700   7.414   4.946 -0.1408  0.5151 -0.3720
17984THY    HA440071   4.688   7.462   5.042 -3.6242  0.7972 -1.5064
17984THY    CA540072   4.681   7.275   4.933  0.1725  0.0570  0.1310
17984THY    CM140073   4.643   7.187   5.045  0.6786  0.3774 -0.3338
17984THY    HM140074   4.700   7.224   5.131 -1.1268  1.7104 -0.4949
17984THY    HM240075   4.662   7.081   5.026 -0.7915 -2.6248 -0.1715
17984THY    HM340076   4.538   7.210   5.067  0.4315 -1.3630  0.3410
17984THY    CA640077   4.677   7.212   4.808  0.3285 -0.6014 -0.7041
17984THY    HA640078   4.652   7.107   4.802  0.7761  2.5329 -1.0906
17985THY      O40079   7.316   3.843   7.482  0.5985 -0.5443  0.2837
17985THY     HO40080   7.395   3.879   7.527  1.3248 -1.5024 -0.0724
17985THY    CA140081   7.348   3.830   7.356 -0.3205 -0.0737  0.5033
17985THY    CA240082   7.260   3.780   7.264  0.3646  0.1577 -0.3082
17985THY    CP140083   7.123   3.724   7.308  0.1016  0.3101 -0.6010
17985THY    HP140084   7.102   3.762   7.408  0.4756 -0.6842  2.6042
17985THY    CP240085   7.124   3.573   7.301 -0.0216 -0.1778 -0.5677
17985THY    HP240086   7.028   3.534   7.339 -0.7765 -0.7953  0.6307
17985THY    HP340087   7.201   3.541   7.372  1.2626 -1.1236  0.3143
17985THY    HP440088   7.127   3.535   7.198  2.3710 -0.2952 -0.2078
17985THY    CP340089   7.004   3.781   7.227 -0.0314  0.0720 -0.0944
17985THY    HP540090   7.011   3.759   7.120 -0.9560 -0.1918  0.8616
17985THY    HP640091   7.014   3.889   7.236  1.2790 -1.3874 -0.0647
17985THY    HP740092   6.917   3.731   7.272  0.0995 -0.2089 -0.5818
17985THY    CA340093   7.294   3.777   7.127  0.0879  0.3047  0.0772
17985THY    HA340094   7.228   3.731   7.054 -1.1207 -0.0895  2.3121
17985THY    CA440095   7.409   3.838   7.082 -0.8834  0.6306 -0.7883
17985THY    HA440096   7.444   3.839   6.979  0.4804  1.0681  0.2552
17985THY    CA540097   7.482   3.911   7.174 -0.2461  0.7537 -0.3867
17985THY    CM140098   7.603   3.991   7.131  0.4103 -0.1475 -0.2211
17985THY    HM140099   7.592   4.033   7.031 -0.1675 -0.6007 -1.3977
17985THY    HM240100   7.687   3.921   7.120 -0.0822  1.1958 -1.0658
17985THY    HM340101   7.631   4.074   7.197  0.6421  1.4154 -1.4863
17985THY    CA640102   7.455   3.907   7.307 -0.5009  0.0881  0.8142
17985THY    HA640103   7.528   3.954   7.373  1.4525 -1.0473 -0.4658
17986THY      O40104   2.845   2.061   2.474  0.0695 -0.2268  0.2845
17986THY     HO40105   2.853   2.157   2.460  1.8029  1.8826  0.5208
17986THY    CA140106   2.730   2.033   2.410 -0.4055 -0.7391  0.6278
17986THY    CA240107   2.709   1.899   2.363 -0.5050 -0.4575  0.0053
17986THY    CP140108   2.835   1.810   2.344  0.0390 -0.2062  0.6934
17986THY    HP140109   2.922   1.845   2.400  0.6329  0.0285 -1.0819
17986THY    CP240110   2.879   1.805   2.193  0.4200  0.2102 -0.1066
17986THY    HP240111   2.974   1.752   2.181 -0.0267  0.6311 -1.0162
17986THY    HP340112   2.900   1.897   2.136 -0.0127  0.6762  0.2862
17986THY    HP440113   2.796   1.755   2.142  0.4724 -0.4204  0.4290
17986THY    CP340114   2.805   1.667   2.396  0.1141  1.0611  0.6353
17986THY    HP540115   2.788   1.685   2.502 -0.4810  1.5445 -2.3600
17986THY    HP640116   2.890   1.599   2.390 -0.7502 -0.1082 -0.3845
17986THY    HP740117   2.712   1.615   2.370 -0.6687  2.0108  1.5207
17986THY    CA340118   2.576   1.849   2.332  0.4881  0.4424 -0.0768
17986THY    HA340119   2.556   1.757   2.278 -1.1017 -0.1201  0.5702
17986THY    CA440120   2.467   1.934   2.353 -0.4406 -0.2129 -0.3157
17986THY    HA440121   2.362   1.906   2.344 -1.0168  2.3081  0.7132
17986THY    CA540122   2.494   2.063   2.410 -0.4462  0.8000  0.1356
17986THY    CM140123   2.383   2.161   2.417  0.9535  0.6134 -0.2181
17986THY    HM140124   2.302   2.143   2.345  1.4935  0.2129 -1.1517
17986THY    HM240125   2.425   2.262   2.407  2.4522 -1.6864 -0.9628
17986THY    HM340126   2.326   2.146   2.509 -0.3896 -0.1446  0.0597
17986THY    CA640127   2.624   2.119   2.427  0.0713  0.2068 -0.1143
17986THY    HA640128   2.641   2.217   2.470 -0.4910 -0.6855  0.3959
17987THY      O40129   1.622   2.155   4.150 -0.1141 -0.2249 -0.3070
17987THY     HO40130   1.620   2.251   4.162  0.2877 -1.3327 -0.1517
17987THY    CA140131   1.505   2.119   4.094  0.2834 -0.4411 -0.4845
17987THY    CA240132   1.446   2.002   4.145 -0.0030 -0.3204 -0.3453
17987THY    CP140133   1.521   1.910   4.251  0.2702  0.1923 -0.0805
17987THY    HP140134   1.575   1.977   4.320  0.8944 -0.7194  0.3748
17987THY    CP240135   1.615   1.810   4.184  0.2731 -0.0658  0.1477
17987THY    HP240136   1.632   1.744   4.269 -3.0192  3.2339  3.1035
17987THY    HP340137   1.706   1.864   4.156 -0.8437  0.2354  2.2781
17987THY    HP440138   1.572   1.766   4.093  0.5051  0.2426 -0.7370
17987THY    CP340139   1.422   1.837   4.343 -0.0031 -0.7765  0.0177
17987THY    HP540140   1.482   1.799   4.427 -1.5048  0.1792 -0.3477
17987THY    HP640141   1.368   1.759   4.288 -0.6403  0.4671 -0.4436
17987THY    HP740142   1.363   1.919   4.384  1.1405 -1.4608  1.2319
17987THY    CA340143   1.314   1.973   4.101  0.1621  0.1663 -1.0894
17987THY    HA340144   1.264   1.884   4.140  0.0454 -0.4879 -1.3253
17987THY    CA440145   1.254   2.059   4.003 -0.2817  0.1086 -0.7895
17987THY    HA440146   1.149   2.050   3.976 -0.1879  0.0033 -1.6783
17987THY    CA540147   1.313   2.177   3.959 -0.0462 -0.2188 -0.5953
17987THY    CM140148   1.232   2.265   3.870 -0.3679 -0.5991  0.0163
17987THY    HM140149   1.165   2.328   3.929 -0.6558 -0.0738 -0.7607
17987THY    HM240150   1.168   2.212   3.798 -3.0081  1.8232 -0.2967
17987THY    HM340151   1.300   2.340   3.828 -1.6493  0.1667  1.6618
17987THY    CA640152   1.439   2.208   4.010 -0.5561  0.2121 -0.4997
17987THY    HA640153   1.486   2.296   3.968 -2.2237 -0.4362  0.1315
17988THY      O40154   5.284   2.415   1.877  0.4598  0.2205  0.2551
17988THY     HO40155   5.261   2.320   1.877 -2.3487 -0.9946  0.8294
17988THY    CA140156   5.186   2.476   1.944 -1.3223 -0.0977  0.5459
17988THY    CA240157   5.217   2.574   2.044  0.1705 -0.0768 -0.3489
17988THY    CP140158   5.364   2.607   2.070  0.2215  0.8233  0.1771
17988THY    HP140159   5.417   2.513   2.049 -0.4983  0.1841 -0.0935
17988THY    CP240160   5.389   2.613   2.223 -0.0002  0.4568 -0.3099
17988THY    HP240161   5.341   2.701   2.267  1.2844  0.3934  0.4447
17988THY    HP340162   5.495   2.626   2.248  0.2207 -0.5334 -0.1088
17988THY    HP440163   5.362   2.518   2.269 -0.9853  0.7694  0.1085
17988THY    CP340164   5.418   2.719   1.984  0.5004 -0.3116  0.6345
17988THY    HP540165   5.439   2.682   1.883  0.1980 -0.4224  0.7544
17988THY    HP640166   5.513   2.760   2.019  0.9702  0.0764 -0.7478
17988THY    HP740167   5.347   2.802   1.976  1.3037 -0.0562  1.3590
17988THY    CA340168   5.110   2.633   2.115 -0.1504  0.4452  0.4532
17988THY    HA340169   5.122   2.712   2.188 -1.3996  0.0938  0.9924
17988THY    CA440170   4.979   2.590   2.091 -0.3324 -0.0358 -0.5967
17988THY    HA440171   4.899   2.615   2.160  0.4316  0.5637  0.2862
17988THY    CA540172   4.955   2.493   1.996  0.2566  0.1193  0.8484
17988THY    CM140173   4.821   2.426   1.988 -0.9409  0.5956 -0.6976
17988THY    HM140174   4.742   2.491   2.028  1.3568  0.0339  2.6739
17988THY    HM240175   4.810   2.333   2.045 -3.7791 -0.2628 -0.9709
17988THY    HM340176   4.798   2.405   1.883  0.2225  0.1249  0.2506
17988THY    CA640177   5.058   2.433   1.919  0.4310 -0.2565 -0.2072
17988THY    HA640178   5.040   2.352   1.848 -0.9514 -1.4381  1.0506
17989THY      O40179   6.996   8.012   5.955  0.0463  0.1416  0.3708
17989THY     HO40180   7.037   7.924   5.957 -0.8480 -0.4160 -0.0763
17989THY    CA140181   7.091   8.108   5.942  0.0077 -0.6248  0.1434
17989THY    CA240182   7.059   8.242   5.960  0.9237  0.0640 -0.1823
17989THY    CP140183   6.908   8.281   5.985 -0.3375  0.1927  0.3004
17989THY    HP140184   6.859   8.205   6.048 -0.0494 -0.0469 -0.0888
17989THY    CP240185   6.820   8.292   5.856  0.1341 -0.4274  0.6332
17989THY    HP240186   6.844   8.383   5.800  0.4537 -0.9202  0.2453
17989THY    HP340187   6.714   8.279   5.880  0.0029 -0.0318  2.2425
17989THY    HP440188   6.836   8.206   5.790  2.0610 -1.0080  1.3890
17989THY    CP340189   6.908   8.426   6.041  0.4334  0.5158 -0.3508
17989THY    HP540190   6.924   8.496   5.959 -0.5776  0.7546  0.1800
17989THY    HP640191   6.986   8.431   6.118 -0.1590  1.0455  1.1244
17989THY    HP740192   6.813   8.450   6.089 -1.2699 -2.4128 -0.6908
17989THY    CA340193   7.163   8.340   5.944  0.5043 -0.0391  0.1026
17989THY    HA340194   7.139   8.446   5.951  0.5806 -3.0103  0.4054
17989THY    CA440195   7.292   8.296   5.917 -0.3845 -1.3333  0.3216
17989THY    HA440196   7.364   8.378   5.917 -1.5613 -1.0058  1.3906
17989THY    CA540197   7.320   8.157   5.899 -0.0917 -0.0524 -0.8008
17989THY    CM140198   7.465   8.107   5.886  0.0777 -0.2630 -1.2979
17989THY    HM140199   7.536   8.185   5.855 -0.2240 -0.4510 -1.0919
17989THY    HM240200   7.469   8.031   5.808 -0.6413 -1.8568  0.2283
17989THY    HM340201   7.500   8.071   5.983  0.6659 -0.1370 -0.4379
17989THY    CA640202   7.215   8.063   5.911 -0.0188 -0.1951 -0.2590
17989THY    HA640203   7.230   7.961   5.877 -1.8661 -0.7812 -0.3778
17990THY      O40204   0.331   3.809   4.140 -0.4035  0.3139 -0.1331
17990THY     HO40205   0.346   3.881   4.077 -0.8766  1.1320  0.7004
17990THY    CA140206   0.441   3.786   4.222 -0.1479  0.8643  1.2980
17990THY    CA240207   0.450   3.669   4.305  0.4386  0.3734 -0.4709
17990THY    CP140208   0.348   3.559   4.294 -0.4091 -0.5036  0.4718
17990THY    HP140209   0.263   3.575   4.227 -0.1811 -0.8168  0.3801
17990THY    CP240210   0.300   3.518   4.435  0.1102 -0.6456  0.7226
17990THY    HP240211   0.251   3.603   4.484  0.1825 -0.4541  0.6528
17990THY    HP340212   0.388   3.500   4.497 -0.3636 -0.1484  0.0640
17990THY    HP440213   0.244   3.424   4.436  0.6874  3.6499  0.2390
17990THY    CP340214   0.414   3.429   4.235  0.3690  0.2287 -0.3180
17990THY    HP540215   0.471   3.448   4.144 -0.7734 -0.6464 -0.9143
17990THY    HP640216   0.338   3.355   4.205  0.3289 -3.0680  0.9244
17990THY    HP740217   0.485   3.375   4.299 -1.2434  1.2137 -1.3628
17990THY    CA340218   0.573   3.657   4.372 -0.0314  0.5767 -0.3827
17990THY    HA340219   0.598   3.559   4.413  0.3250 -1.3319 -1.1249
17990THY    CA440220   0.663   3.761   4.374 -0.3594 -0.0024  0.8444
17990THY    HA440221   0.760   3.755   4.423 -0.1292 -0.3941  1.2813
17990THY    CA540222   0.645   3.886   4.309  0.1395  0.2867  0.1948
17990THY    CM140223   0.749   3.995   4.321 -0.0495  0.1618 -0.0751
17990THY    HM140224   0.700   4.089   4.348  1.5695  2.3872  0.2208
17990THY    HM240225   0.800   4.009   4.225 -1.0243 -0.1293  1.7586
17990THY    HM340226   0.814   3.983   4.409  2.4329 -1.4819  0.5853
17990THY    CA640227   0.533   3.892   4.234  0.2019  0.5179  0.3206
17990THY    HA640228   0.504   3.987   4.191 -1.1309  2.9076  1.0740
17991THY      O40229   6.791   0.370   4.460  0.2194  0.0449  0.2026
17991THY     HO40230   6.726   0.392   4.530  2.5554  2.2141  0.7358
17991THY    CA140231   6.903   0.442   4.497  0.9005  0.3927  0.1507
17991THY    CA240232   7.026   0.409   4.445  0.3388 -0.3451 -0.7887
17991THY    CP140233   7.045   0.295   4.328 -0.2321 -0.2481  0.3122
17991THY    HP140234   6.964   0.304   4.255 -0.2428 -0.3758 -0.6964
17991THY    CP240235   7.034   0.159   4.398  0.1449 -0.2787  0.1167
17991THY    HP240236   6.931   0.131   4.424  0.5492 -0.4493 -1.6513
17991THY    HP340237   7.097   0.160   4.488  0.6737 -0.3732 -4.4970
17991THY    HP440238   7.076   0.076   4.340  0.2514  2.0239 -1.5442
17991THY    CP340239   7.184   0.305   4.258  0.1063  0.3328 -0.5786
17991THY    HP540240   7.258   0.287   4.337 -1.9284  2.7225  0.9175
17991THY    HP640241   7.193   0.406   4.217  0.4602  0.0560 -0.7186
17991THY    HP740242   7.201   0.244   4.168 -0.1104 -1.2446  1.5655
17991THY    CA340243   7.141   0.466   4.517  0.2613  0.6334 -0.4001
17991THY    HA340244   7.240   0.430   4.488  0.3177  0.7366 -0.3259
17991THY    CA440245   7.121   0.564   4.617 -0.0459 -0.0682 -0.2703
17991THY    HA440246   7.206   0.606   4.669 -0.5503 -1.5544  2.8633
17991THY    CA540247   6.998   0.604   4.644  0.2868  0.4500 -0.7070
17991THY    CM140248   6.976   0.696   4.761  0.1561  0.0319 -0.0612
17991THY    HM140249   6.944   0.651   4.855  1.7196  0.3921 -0.4895
17991THY    HM240250   6.898   0.766   4.730 -0.1688  1.8478  0.4205
17991THY    HM340251   7.067   0.752   4.785  0.3456  0.0045 -0.3537
17991THY    CA640252   6.889   0.547   4.588 -0.3018 -0.2654 -0.1033
17991THY    HA640253   6.792   0.590   4.613 -0.5260 -2.6545  0.9542
17992THY      O40254   7.472   3.751   4.244  1.0505 -1.1404  0.3893
17992THY     HO40255   7.519   3.813   4.185  2.1736  1.7196  2.4874
17992THY    CA140256   7.475   3.631   4.182  0.5289  0.2211  0.4827
17992THY    CA240257   7.377   3.528   4.209 -0.3527  0.4203 -0.0485
17992THY    CP140258   7.283   3.533   4.330  0.1542 -0.1100  0.7602
17992THY    HP140259   7.254   3.636   4.357 -0.3526  0.8879  0.3698
17992THY    CP240260   7.350   3.479   4.458 -0.3478 -0.4333 -0.0229
17992THY    HP240261   7.286   3.498   4.545  0.2323 -0.3259  1.5952
17992THY    HP340262   7.449   3.524   4.475 -1.3010 -1.5733  2.7134
17992THY    HP440263   7.366   3.371   4.457 -1.9721  0.5229 -0.3065
17992THY    CP340264   7.142   3.455   4.314  0.8452  0.2865  0.1813
17992THY    HP540265   7.091   3.494   4.225 -0.4695  0.6732 -0.6060
17992THY    HP640266   7.078   3.484   4.398 -1.3057 -1.2314  0.0519
17992THY    HP740267   7.158   3.346   4.310  2.4811  2.1825  0.3026
17992THY    CA340268   7.379   3.416   4.128 -0.4547 -0.2764 -0.0822
17992THY    HA340269   7.311   3.333   4.145 -1.2642 -1.1170  0.3889
17992THY    CA440270   7.477   3.401   4.026  0.1194 -0.0055 -0.1660
17992THY    HA440271   7.473   3.310   3.966  2.5193  0.2698 -0.4975
17992THY    CA540272   7.560   3.505   3.992  0.7595  0.2970  0.0318
17992THY    CM140273   7.655   3.492   3.882 -0.0601  0.0831 -0.7985
17992THY    HM140274   7.589   3.470   3.797 -0.8846  0.2320  0.8952
17992THY    HM240275   7.728   3.412   3.893  0.0719  0.6495 -0.6044
17992THY    HM340276   7.688   3.595   3.867 -3.2709  0.6947  0.4648
17992THY    CA640277   7.557   3.625   4.069 -0.0449 -0.0658  0.2571
17992THY    HA640278   7.616   3.713   4.044  1.1266  2.2158  0.1838
17993THY      O40279   8.121   2.503   6.552 -0.0101  0.2565  1.1395
17993THY     HO40280   8.208   2.465   6.530 -0.4039 -0.3981  0.5997
17993THY    CA140281   8.129   2.617   6.481 -0.0003 -0.4326 -0.2540
17993THY    CA240282   8.025   2.711   6.485  0.4625 -0.0398 -0.5479
17993THY    CP140283   7.894   2.677   6.555  0.0260  0.5117 -0.1054
17993THY    HP140284   7.896   2.587   6.617 -1.2625 -1.4528 -1.5637
17993THY    CP240285   7.784   2.664   6.451  0.2303  0.5894  0.4457
17993THY    HP240286   7.686   2.699   6.486  0.2278  3.1706 -1.8053
17993THY    HP340287   7.759   2.560   6.428 -0.2795 -1.2195  0.9355
17993THY    HP440288   7.817   2.712   6.358  0.2517 -0.4942 -1.5523
17993THY    CP340289   7.863   2.792   6.649  0.8750 -0.6115 -0.1317
17993THY    HP540290   7.842   2.880   6.587  2.2100 -1.3755 -0.3202
17993THY    HP640291   7.943   2.810   6.721 -2.0361  2.3080  2.1656
17993THY    HP740292   7.776   2.757   6.706  1.5718  1.1050  0.8235
17993THY    CA340293   8.034   2.837   6.414  1.0376  0.1641  0.3139
17993THY    HA340294   7.952   2.907   6.405 -0.3054 -0.7863 -1.2961
17993THY    CA440295   8.154   2.856   6.345  0.0234  0.0831 -0.9755
17993THY    HA440296   8.164   2.944   6.283 -3.3248 -0.6427 -0.9869
17993THY    CA540297   8.251   2.763   6.342  0.1554  0.4775 -0.6486
17993THY    CM140298   8.378   2.791   6.260  0.1837 -0.0490  0.2305
17993THY    HM140299   8.373   2.887   6.208  1.0006 -1.6298 -0.5468
17993THY    HM240300   8.389   2.713   6.184 -2.6519  1.8165 -2.2330
17993THY    HM340301   8.469   2.777   6.320  0.3088 -0.4998 -1.0411
17993THY    CA640302   8.243   2.646   6.410  0.5515  0.2412  0.6472
17993THY    HA640303   8.321   2.571   6.422 -0.3462  1.1671 -0.1689
17994THY      O40304   6.700   2.575   6.268 -0.1832 -0.1012 -0.0974
17994THY     HO40305   6.690   2.484   6.234 -3.2969 -0.1288  0.1410
17994THY    CA140306   6.713   2.553   6.400 -0.0646  0.0138 -0.6467
17994THY    CA240307   6.773   2.658   6.480 -0.0186 -0.1716  0.0384
17994THY    CP140308   6.809   2.800   6.425 -0.6488  0.0282  0.4056
17994THY    HP140309   6.819   2.793   6.316 -1.8677 -0.0793  0.0246
17994THY    CP240310   6.943   2.851   6.479 -0.4200 -1.1426 -0.1112
17994THY    HP240311   7.013   2.767   6.487  0.2516  2.0945  0.6441
17994THY    HP340312   6.939   2.878   6.585  0.5365 -0.2181 -3.1526
17994THY    HP440313   6.986   2.929   6.415  0.8255  0.1661  0.3106
17994THY    CP340314   6.694   2.898   6.449  0.1345  0.1664  0.3621
17994THY    HP540315   6.677   2.884   6.556  1.1563  0.1755 -0.9873
17994THY    HP640316   6.610   2.888   6.378 -1.7782  2.1061  1.7157
17994THY    HP740317   6.729   3.000   6.434 -1.2174 -1.2131  0.6668
17994THY    CA340318   6.806   2.624   6.616  0.5181 -0.5205 -0.6319
17994THY    HA340319   6.846   2.694   6.689  2.7380 -1.2951 -0.9888
17994THY    CA440320   6.750   2.504   6.668 -0.7064  0.4591  0.6970
17994THY    HA440321   6.761   2.469   6.770 -1.8451 -0.3407 -2.3151
17994THY    CA540322   6.679   2.412   6.589  0.1232  1.1190  0.3253
17994THY    CM140323   6.631   2.275   6.654 -0.2853  0.2855 -0.6596
17994THY    HM140324   6.701   2.226   6.724 -0.3239  0.1711 -0.8819
17994THY    HM240325   6.614   2.205   6.571  0.5892  0.2842 -0.8820
17994THY    HM340326   6.535   2.286   6.705  0.8268  1.9921  2.2243
17994THY    CA640327   6.672   2.429   6.449  0.3390  0.2841  0.2498
17994THY    HA640328   6.620   2.355   6.389 -0.7729  2.4911 -0.8499
17995THY      O40329   8.270   5.334   6.447 -0.4983 -0.3261  0.0817
17995THY     HO40330   8.197   5.392   6.422  1.0855 -0.8391  1.9501
17995THY    CA140331   8.358   5.347   6.345 -0.1317 -0.3935 -0.0508
17995THY    CA240332   8.491   5.309   6.356 -0.6351 -0.1729  0.0134
17995THY    CP140333   8.538   5.254   6.493 -0.0737  0.0946  0.7379
17995THY    HP140334   8.465   5.197   6.551 -0.3331  1.4942  2.4049
17995THY    CP240335   8.587   5.367   6.581  0.6357 -0.0037  0.2504
17995THY    HP240336   8.498   5.429   6.596 -0.3423  1.4306 -1.4000
17995THY    HP340337   8.675   5.410   6.532  0.1867  0.0569  1.2668
17995THY    HP440338   8.618   5.337   6.682  0.8376  0.2228  1.2032
17995THY    CP340339   8.655   5.153   6.488  0.1934  0.3018  0.8115
17995THY    HP540340   8.751   5.191   6.450  0.9461  0.5478 -0.7537
17995THY    HP640341   8.637   5.070   6.419  0.4779  2.9674 -1.5768
17995THY    HP740342   8.666   5.103   6.584 -1.6040  0.6444  1.0372
17995THY    CA340343   8.576   5.313   6.248 -0.6547  0.1194  0.1382
17995THY    HA340344   8.682   5.293   6.263 -1.2031  0.6817 -2.8185
17995THY    CA440345   8.530   5.369   6.129 -0.0698 -0.1275 -0.1825
17995THY    HA440346   8.596   5.388   6.044 -1.4153 -0.6833  2.3620
17995THY    CA540347   8.392   5.398   6.119  0.2347  0.4552  0.3179
17995THY    CM140348   8.338   5.445   5.987 -0.0487  0.3868  0.7939
17995THY    HM140349   8.335   5.370   5.907 -1.1256  0.6916  0.4893
17995THY    HM240350   8.390   5.533   5.947  0.1741 -1.9230 -0.3292
17995THY    HM340351   8.235   5.475   6.011 -0.5310  1.5096 -1.5854
17995THY    CA640352   8.309   5.392   6.227 -0.4881 -0.5165 -0.3810
17995THY    HA640353   8.206   5.425   6.213 -0.3433 -2.9349 -0.7582
17996THY      O40354   6.337   7.892   2.505 -0.3907 -0.4302  0.3324
17996THY     HO40355   6.265   7.840   2.544 -1.7218 -1.5012  1.3013
17996THY    CA140356   6.311   8.023   2.534  0.8055  0.4906 -0.0537
17996THY    CA240357   6.338   8.126   2.446 -0.0680 -0.1220 -0.2948
17996THY    CP140358   6.424   8.102   2.320 -0.0506  0.4386  0.4561
17996THY    HP140359   6.403   7.998   2.292  1.3352  2.3962 -0.3930
17996THY    CP240360   6.572   8.132   2.352 -0.0224  0.1562  0.2410
17996THY    HP240361   6.629   8.090   2.268 -0.1462  0.0106  0.3680
17996THY    HP340362   6.620   8.086   2.439  1.2066 -1.5780 -1.9424
17996THY    HP440363   6.587   8.240   2.344 -0.1170  1.6104  0.3903
17996THY    CP340364   6.382   8.183   2.192  0.0538  0.4056 -0.0344
17996THY    HP540365   6.279   8.156   2.167  0.1239  0.3245 -0.2340
17996THY    HP640366   6.443   8.148   2.107 -0.8153 -1.1952  2.0828
17996THY    HP740367   6.404   8.290   2.206 -0.6899 -2.1421  0.5249
17996THY    CA340368   6.307   8.253   2.480 -0.5524 -0.5732 -0.6585
17996THY    HA340369   6.327   8.335   2.412  0.7070 -0.4599 -0.8561
17996THY    CA440370   6.247   8.280   2.602 -0.0786  1.2463 -0.3006
17996THY    HA440371   6.238   8.382   2.640  1.8802 -0.2057  0.4793
17996THY    CA540372   6.224   8.176   2.691  0.2712 -0.1055 -0.5660
17996THY    CM140373   6.154   8.212   2.826  0.4601 -0.6041  0.0715
17996THY    HM140374   6.149   8.141   2.909  2.0291 -2.3267 -2.2006
17996THY    HM240375   6.048   8.224   2.803  0.8374 -4.1263 -2.0087
17996THY    HM340376   6.194   8.309   2.860 -0.1180 -0.0828  0.1323
17996THY    CA640377   6.253   8.043   2.659  0.1646  0.7836 -0.2296
17996THY    HA640378   6.243   7.965   2.734 -0.3622 -0.5676 -1.5086
17997THY      O40379   1.982   2.654   2.660 -0.0437  0.4650  0.5221
17997THY     HO40380   1.971   2.749   2.640 -1.9242  1.1440  0.4809
17997THY    CA140381   1.868   2.598   2.678  0.1191 -0.4265 -0.6285
17997THY    CA240382   1.841   2.469   2.628  0.4032 -0.6067  0.1701
17997THY    CP140383   1.946   2.387   2.558  0.1344 -0.1240 -0.5383
17997THY    HP140384   2.046   2.428   2.576  1.0180 -1.3776 -1.9962
17997THY    CP240385   1.925   2.402   2.415  0.0790  0.0308 -0.3283
17997THY    HP240386   1.830   2.358   2.383  0.2295 -0.0424 -0.6084
17997THY    HP340387   2.002   2.354   2.353 -1.4971 -1.6065 -0.8602
17997THY    HP440388   1.940   2.506   2.385 -0.9261  1.7340  0.3382
17997THY    CP340389   1.952   2.237   2.597 -0.4144 -0.1621 -0.1899
17997THY    HP540390   2.044   2.186   2.565 -0.1681 -0.1375  0.2333
17997THY    HP640391   1.863   2.182   2.563  0.1483  0.8162 -1.7765
17997THY    HP740392   1.941   2.228   2.706 -0.8361 -0.2006 -0.1930
17997THY    CA340393   1.711   2.427   2.642  0.3365 -1.1472  0.0518
17997THY    HA340394   1.685   2.326   2.609 -0.7910 -1.8740  0.5611
17997THY    CA440395   1.607   2.519   2.681 -0.8006 -0.0583  0.4964
17997THY    HA440396   1.501   2.494   2.682 -1.6893 -1.7443  3.5885
17997THY    CA540397   1.642   2.644   2.734 -0.2236  0.3222 -0.4697
17997THY    CM140398   1.537   2.733   2.796 -0.2331 -0.3572  0.0149
17997THY    HM140399   1.479   2.784   2.719  2.1401 -2.5171 -0.2954
17997THY    HM240400   1.588   2.806   2.860  1.9684 -0.9111 -0.9528
17997THY    HM340401   1.473   2.676   2.864 -1.4555  0.0953  1.8519
17997THY    CA640402   1.775   2.686   2.732 -0.0931 -0.2335  0.4467
17997THY    HA640403   1.811   2.778   2.776 -1.1105  0.5368  0.4923
17998THY      O40404   6.276   4.421   2.862 -0.1546 -0.4929  0.3884
17998THY     HO40405   6.228   4.375   2.792 -1.0458  0.0696  0.4335
17998THY    CA140406   6.295   4.543   2.820 -0.1078  0.8629 -0.7734
17998THY    CA240407   6.402   4.620   2.860 -0.5043 -0.1203 -0.1958
17998THY    CP140408   6.506   4.558   2.965 -0.0787  0.3206  0.5166
17998THY    HP140409   6.451   4.511   3.048 -1.1076  0.0765  1.2450
17998THY    CP240410   6.590   4.663   3.045 -0.2592 -0.4346 -0.3859
17998THY    HP240411   6.673   4.699   2.982  0.4776 -0.2687 -1.7299
17998THY    HP340412   6.630   4.621   3.137 -1.7190 -0.1714 -1.2537
17998THY    HP440413   6.533   4.753   3.070  0.5064  0.0349 -0.0207
17998THY    CP340414   6.609   4.464   2.893 -0.7232 -0.3380 -0.1648
17998THY    HP540415   6.675   4.415   2.965 -0.4021  0.4942  1.4275
17998THY    HP640416   6.682   4.525   2.838  0.1640  0.7015 -0.2583
17998THY    HP740417   6.576   4.389   2.820  1.4767  0.5015 -2.0704
17998THY    CA340418   6.414   4.753   2.821 -0.2657  0.3577 -0.6642
17998THY    HA340419   6.495   4.814   2.861 -0.7282  0.7421 -0.3021
17998THY    CA440420   6.331   4.796   2.715  0.5018  0.1041 -0.1813
17998THY    HA440421   6.348   4.894   2.671  1.8743 -0.7125 -0.7550
17998THY    CA540422   6.223   4.715   2.667  0.9142 -0.5434 -0.2363
17998THY    CM140423   6.121   4.768   2.567 -0.2526 -0.0566  0.3583
17998THY    HM140424   6.046   4.816   2.631  0.9444  1.7954 -0.1341
17998THY    HM240425   6.081   4.686   2.506  2.3723 -0.0164 -1.0736
17998THY    HM340426   6.165   4.837   2.494  1.2086  0.1439 -0.3217
17998THY    CA640427   6.195   4.592   2.729 -0.6194  0.0144 -0.5942
17998THY    HA640428   6.107   4.532   2.712 -1.3131  1.3386 -0.0130
17999THY      O40429   1.111   3.389   5.828  0.6556 -0.2148  0.1633
17999THY     HO40430   1.120   3.309   5.774  1.1888 -0.8655  0.6550
17999THY    CA140431   1.218   3.457   5.805  0.5450 -0.0105 -0.3150
17999THY    CA240432   1.229   3.587   5.858 -0.4856  0.5187  0.1320
17999THY    CP140433   1.137   3.635   5.974 -0.8636 -0.0708 -0.0713
17999THY    HP140434   1.072   3.556   6.012  0.7666  1.4511 -0.7514
17999THY    CP240435   1.044   3.745   5.911  0.0238 -0.0920  0.7342
17999THY    HP240436   1.092   3.806   5.835 -0.1545 -0.4824  0.3924
17999THY    HP340437   0.990   3.795   5.992 -0.6381  0.7406 -1.1988
17999THY    HP440438   0.971   3.689   5.851  1.4575  0.8452 -2.4179
17999THY    CP340439   1.220   3.687   6.094  0.4195 -0.2289  0.2553
17999THY    HP540440   1.311   3.626   6.104  0.2742 -1.1954 -0.1406
17999THY    HP640441   1.169   3.673   6.190  0.9682  0.2025  1.1105
17999THY    HP740442   1.252   3.791   6.082  1.6350  0.4814 -0.0249
17999THY    CA340443   1.343   3.665   5.813  0.2774 -0.1578  0.2670
17999THY    HA340444   1.367   3.761   5.858 -0.7141  0.8733  0.0482
17999THY    CA440445   1.431   3.616   5.713 -0.1170 -0.5907 -0.2569
17999THY    HA440446   1.519   3.673   5.685 -0.3937  1.1547  1.1237
17999THY    CA540447   1.408   3.497   5.653 -1.1486 -0.6170  0.1919
17999THY    CM140448   1.499   3.430   5.558 -0.4338  0.4024  0.4557
17999THY    HM140449   1.479   3.465   5.456  2.2241  0.4771  2.5035
17999THY    HM240450   1.495   3.321   5.553  0.6501  1.0344  0.3721
17999THY    HM340451   1.602   3.453   5.586  0.2986 -0.9803 -0.9811
17999THY    CA640452   1.305   3.414   5.706 -0.3753  0.0937  0.1129
17999THY    HA640453   1.299   3.310   5.675 -1.7859  0.6309  0.0091
18000THY      O40454   1.240   8.876   5.693 -0.1755  0.6490 -0.0024
18000THY     HO40455   1.218   8.821   5.771 -0.6353 -0.2548 -1.1409
18000THY    CA140456   1.131   8.952   5.681 -0.5291  0.6906  0.4144
18000THY    CA240457   1.133   9.057   5.592 -0.7722  0.0553  0.3530
18000THY    CP140458   1.256   9.076   5.498 -0.7451 -0.0579  0.4856
18000THY    HP140459   1.342   9.018   5.532  0.4835 -1.3808  1.4620
18000THY    CP240460   1.297   9.225   5.490 -0.1760 -0.3466  0.2537
18000THY    HP240461   1.390   9.230   5.432 -0.5670 -0.9979  0.1087
18000THY    HP340462   1.304   9.278   5.586 -0.9022  0.5856 -1.2657
18000THY    HP440463   1.216   9.276   5.437  0.2229 -0.8212  0.4036
18000THY    CP340464   1.223   9.033   5.354 -0.0787 -0.4520  0.1901
18000THY    HP540465   1.310   9.030   5.287  1.5157  1.5422 -0.0438
18000THY    HP640466   1.152   9.107   5.315  1.5704 -1.8839  1.1030
18000THY    HP740467   1.166   8.940   5.366  1.6341  3.9174 -0.5402
18000THY    CA340468   1.011   9.123   5.568  0.1292  0.2535  0.7662
18000THY    HA340469   0.996   9.194   5.487  0.5297  1.7453  2.6218
18000THY    CA440470   0.906   9.101   5.647  0.3235  0.0860  0.7058
18000THY    HA440471   0.811   9.151   5.628  1.4708 -2.0973  2.1820
18000THY    CA540472   0.905   9.007   5.751 -0.4122  0.4331  1.0762
18000THY    CM140473   0.785   8.995   5.846  0.5919  0.1135  0.2992
18000THY    HM140474   0.793   8.903   5.905 -0.8511  0.1670  0.1870
18000THY    HM240475   0.688   8.981   5.796  0.2034  1.0563 -0.4394
18000THY    HM340476   0.788   9.075   5.921  0.3486  1.0767 -0.5846
18000THY    CA640477   1.025   8.931   5.766  0.6030  0.0071  1.3342
18000THY    HA640478   1.029   8.856   5.844 -1.8418 -0.9168  0.1459
18001THY      O40479   3.071   5.784   2.476 -0.3853  0.2027 -0.0956
18001THY     HO40480   3.104   5.872   2.501  0.9070 -0.4665 -0.3483
18001THY    CA140481   3.162   5.703   2.529  0.4827 -0.4047  0.5350
18001THY    CA240482   3.148   5.563   2.512 -0.3127  0.6238 -0.1040
18001THY    CP140483   3.072   5.499   2.397 -0.4465  0.3178  0.0432
18001THY    HP140484   3.041   5.565   2.314 -1.2454  0.7078  0.1647
18001THY    CP240485   2.948   5.434   2.466 -0.7030  0.2465 -0.2636
18001THY    HP240486   2.968   5.372   2.554 -1.3150  1.4258  1.1467
18001THY    HP340487   2.879   5.388   2.394 -4.2628  1.7341  2.2694
18001THY    HP440488   2.881   5.512   2.505  0.9693  1.5060  0.5899
18001THY    CP340489   3.149   5.395   2.313  0.3914  0.0247 -0.8195
18001THY    HP540490   3.188   5.311   2.373 -0.2661  0.5449 -0.7648
18001THY    HP640491   3.238   5.442   2.270  1.5256  1.8247 -1.2059
18001THY    HP740492   3.083   5.366   2.230  0.3267 -0.0701 -0.3969
18001THY    CA340493   3.212   5.475   2.605 -0.1100 -0.6898  1.0590
18001THY    HA340494   3.188   5.369   2.602 -1.9065  0.2837  1.3898
18001THY    CA440495   3.297   5.531   2.706 -0.5273  0.2045 -0.2962
18001THY    HA440496   3.351   5.458   2.766  1.1915 -0.3150  0.4888
18001THY    CA540497   3.311   5.668   2.717  0.0923 -0.0421 -0.6825
18001THY    CM140498   3.397   5.724   2.827  0.5995  0.0414 -0.3077
18001THY    HM140499   3.394   5.656   2.912 -0.0588 -0.5711 -1.0532
18001THY    HM240500   3.359   5.820   2.864 -1.4433 -0.1668 -0.9808
18001THY    HM340501   3.502   5.729   2.796  0.7745  0.6613  0.0268
18001THY    CA640502   3.242   5.750   2.631 -0.2697 -1.3175 -0.3377
18001THY    HA640503   3.252   5.857   2.647 -3.0339  0.1206 -0.2180
18002THY      O40504   9.326   1.907   3.949  0.2232  0.2361 -0.3169
18002THY     HO40505   9.368   1.868   3.870 -0.7274 -0.1808 -0.5348
18002THY    CA140506   9.208   1.947   3.914 -0.6636  0.7721  0.5244
18002THY    CA240507   9.128   2.025   3.997 -0.2180 -0.1501 -0.2271
18002THY    CP140508   9.176   2.057   4.141 -0.0978  0.8854 -0.5107
18002THY    HP140509   9.281   2.026   4.155  0.3532 -1.4102 -0.1805
18002THY    CP240510   9.089   1.984   4.247  0.8972 -0.6239 -0.6088
18002THY    HP240511   9.010   2.047   4.290  0.7995 -0.3326 -0.9226
18002THY    HP340512   9.167   1.966   4.322  1.0687 -0.5001  0.5533
18002THY    HP440513   9.042   1.898   4.198  0.5430 -2.3790  0.5289
18002THY    CP340514   9.168   2.207   4.159  0.0219 -0.9762 -0.5679
18002THY    HP540515   9.221   2.266   4.083  1.4796 -0.8666 -1.6944
18002THY    HP640516   9.222   2.230   4.252 -0.2258 -0.2431 -2.7683
18002THY    HP740517   9.071   2.252   4.186 -0.2991 -1.8796 -0.7147
18002THY    CA340518   9.003   2.067   3.941  1.0191  0.1219 -0.7485
18002THY    HA340519   8.935   2.120   4.008 -0.4618  0.0932 -2.5281
18002THY    CA440520   8.962   2.023   3.813 -0.2650 -0.4263  0.4198
18002THY    HA440521   8.861   2.049   3.783 -1.8987  1.7390 -2.7538
18002THY    CA540522   9.040   1.942   3.735  0.4198 -0.4820  0.0019
18002THY    CM140523   8.983   1.889   3.601 -0.2340 -0.2550  0.5346
18002THY    HM140524   8.929   1.969   3.549 -0.5755  2.4157  2.1680
18002THY    HM240525   8.917   1.804   3.621 -0.4703  1.6873  1.1326
18002THY    HM340526   9.063   1.851   3.536  0.8392  0.5928  1.2745
18002THY    CA640527   9.163   1.901   3.785  0.4600 -0.1224 -0.2560
18002THY    HA640528   9.224   1.837   3.721 -0.3997 -0.3583 -0.8629
18003THY      O40529   8.903   8.480   2.257  0.0716  0.3802  0.1621
18003THY     HO40530   8.995   8.498   2.231  0.8344  2.6114 -0.2620
18003THY    CA140531   8.839   8.594   2.294  0.1270 -0.0684  0.0217
18003THY    CA240532   8.699   8.597   2.298  0.3694  0.0264 -0.2754
18003THY    CP140533   8.614   8.479   2.263  0.0205  0.4649 -0.3357
18003THY    HP140534   8.675   8.397   2.223 -1.1227 -0.6356 -0.6826
18003THY    CP240535   8.530   8.510   2.140  0.6838  0.0843  0.0702
18003THY    HP240536   8.495   8.409   2.114  1.5339  0.0419 -0.2198
18003THY    HP340537   8.591   8.544   2.056  0.3267  0.2325  1.1138
18003THY    HP440538   8.442   8.572   2.162 -0.0250 -0.8624 -0.5806
18003THY    CP340539   8.526   8.429   2.370  0.1774 -1.0056  0.5567
18003THY    HP540540   8.590   8.403   2.454  0.3928 -1.1436  0.6425
18003THY    HP640541   8.461   8.344   2.344  2.4827  2.4306 -2.5539
18003THY    HP740542   8.466   8.515   2.402  0.2842 -1.1886  0.7018
18003THY    CA340543   8.639   8.718   2.346  0.5845  0.5612 -0.0463
18003THY    HA340544   8.531   8.721   2.355  0.7344  2.4091  1.7378
18003THY    CA440545   8.718   8.829   2.380 -0.0671 -0.5381  0.1533
18003THY    HA440546   8.672   8.916   2.425 -0.9650  1.9536 -1.5313
18003THY    CA540547   8.856   8.828   2.363 -0.3116  1.0166 -0.2030
18003THY    CM140548   8.937   8.943   2.406  0.2163  0.3922 -0.1830
18003THY    HM140549   8.929   8.969   2.512 -1.1004 -0.0017  1.1061
18003THY    HM240550   8.916   9.032   2.346 -1.0789  2.1776  0.7464
18003THY    HM340551   9.043   8.920   2.386  0.2676  0.2903  0.1307
18003THY    CA640552   8.919   8.705   2.321 -0.3595  0.5222  0.2684
18003THY    HA640553   9.025   8.685   2.309 -0.7306 -1.4691 -0.7478
18004THY      O40554   1.076   6.939   7.001 -0.5386 -0.2618  0.0971
18004THY     HO40555   1.023   6.906   7.075  1.2575  0.3537 -1.6153
18004THY    CA140556   1.180   6.857   6.990  0.3484  0.1618 -0.1861
18004THY    CA240557   1.301   6.892   6.931  0.3342 -0.1997 -0.5048
18004THY    CP140558   1.316   7.035   6.877 -0.6186 -0.1580 -0.0982
18004THY    HP140559   1.227   7.098   6.886 -0.3869 -1.0308  0.3842
18004THY    CP240560   1.349   7.042   6.730  0.3385  0.4372 -0.0620
18004THY    HP240561   1.451   7.009   6.707  0.9778  0.6011  1.6870
18004THY    HP340562   1.345   7.147   6.697  1.6231  0.0647 -0.1040
18004THY    HP440563   1.268   6.982   6.687  0.0255  2.9118 -1.5374
18004THY    CP340564   1.421   7.113   6.951  0.0608 -0.4809 -0.0206
18004THY    HP540565   1.379   7.132   7.050 -0.0067 -0.4711 -0.2191
18004THY    HP640566   1.452   7.205   6.900  0.2918  3.9370  2.6303
18004THY    HP740567   1.513   7.055   6.969  0.1152  0.0772  0.2329
18004THY    CA340568   1.404   6.796   6.927  0.0798  0.2813  1.0769
18004THY    HA340569   1.503   6.822   6.890  0.7037  1.0043 -0.1960
18004THY    CA440570   1.385   6.661   6.974  0.2207 -0.3337  0.0475
18004THY    HA440571   1.475   6.600   6.976  1.3735 -0.6299  1.6705
18004THY    CA540572   1.258   6.622   7.020 -0.5116 -0.1439 -0.3924
18004THY    CM140573   1.243   6.491   7.079  0.3649  0.0103  0.9725
18004THY    HM140574   1.273   6.414   7.007  0.8173  0.8655  0.3401
18004THY    HM240575   1.136   6.481   7.103  0.6223  0.9219  0.3345
18004THY    HM340576   1.312   6.483   7.163  0.6045 -0.2521  0.3039
18004THY    CA640577   1.160   6.721   7.025  0.4602  0.1182  0.3996
18004THY    HA640578   1.063   6.693   7.066  0.2473  0.6251  1.7962
18005THY      O40579   9.120   3.214   3.866 -0.2535 -0.0181  0.2287
18005THY     HO40580   9.109   3.229   3.961 -0.8471  0.2219 -1.4505
18005THY    CA140581   9.226   3.276   3.818  0.6087 -0.1854  0.3407
18005THY    CA240582   9.272   3.237   3.692  0.0425 -0.0559 -0.3684
18005THY    CP140583   9.224   3.102   3.631 -0.2730 -0.2678 -0.2271
18005THY    HP140584   9.125   3.076   3.672  0.0606  1.0212  0.4924
18005THY    CP240585   9.330   2.992   3.637 -0.1630 -0.2843 -0.1892
18005THY    HP240586   9.373   2.969   3.735  0.8302 -0.5646  0.4085
18005THY    HP340587   9.419   3.014   3.577  1.9093  2.8323  0.6798
18005THY    HP440588   9.278   2.900   3.608 -0.3523 -0.1002 -0.1422
18005THY    CP340589   9.198   3.121   3.480 -0.4954 -0.3430  0.7785
18005THY    HP540590   9.175   3.028   3.427 -2.4763  0.6938  0.6213
18005THY    HP640591   9.286   3.167   3.433 -0.3858 -0.0062  0.9219
18005THY    HP740592   9.110   3.183   3.460  0.5087  0.1055  2.4201
18005THY    CA340593   9.379   3.316   3.634 -0.4588  0.0349  0.5315
18005THY    HA340594   9.424   3.282   3.541 -1.3021 -0.2311  0.0992
18005THY    CA440595   9.427   3.427   3.700 -0.9349 -0.4437 -0.1478
18005THY    HA440596   9.506   3.489   3.658 -2.2409 -2.5536  0.1670
18005THY    CA540597   9.394   3.451   3.834  0.6165  0.6256 -0.1514
18005THY    CM140598   9.453   3.570   3.902 -0.3996  0.4536  0.0201
18005THY    HM140599   9.426   3.557   4.007 -2.9221 -0.0725  0.4422
18005THY    HM240600   9.407   3.663   3.866 -1.7376  1.2195 -0.3193
18005THY    HM340601   9.562   3.562   3.893 -0.5087 -0.7868 -0.2703
18005THY    CA640602   9.292   3.376   3.891  0.0593  0.6246 -0.4925
18005THY    HA640603   9.264   3.391   3.995 -0.8269  0.4082 -0.6191
18006THY      O40604   8.733   2.186   4.997 -0.1327 -0.1587  0.2051
18006THY     HO40605   8.756   2.091   5.003  0.6891 -1.2231  0.3194
18006THY    CA140606   8.755   2.196   4.862  0.4273 -0.6091 -1.0293
18006THY    CA240607   8.719   2.309   4.788  0.1401  0.1858 -0.2366
18006THY    CP140608   8.662   2.427   4.863 -0.0329  0.0989 -0.9956
18006THY    HP140609   8.643   2.411   4.970  0.2813  0.1103 -1.3060
18006THY    CP240610   8.533   2.467   4.800  0.2559  0.3125  0.4792
18006THY    HP240611   8.460   2.385   4.794  2.3731 -0.8393 -1.4350
18006THY    HP340612   8.542   2.491   4.694  0.5390 -0.1234 -1.4554
18006THY    HP440613   8.472   2.541   4.854  0.5394  0.2005  0.7946
18006THY    CP340614   8.752   2.555   4.863 -0.7156 -0.1053 -0.2501
18006THY    HP540615   8.700   2.651   4.869  0.7564  1.5674  0.5054
18006THY    HP640616   8.805   2.564   4.767 -2.3674 -1.1981 -1.5256
18006THY    HP740617   8.822   2.556   4.948 -0.2881 -0.4563  0.0976
18006THY    CA340618   8.746   2.298   4.645  0.0227 -0.4227 -0.1164
18006THY    HA340619   8.740   2.392   4.590 -1.1280  0.1576  0.1767
18006THY    CA440620   8.801   2.179   4.586 -0.0826 -0.1933  0.4254
18006THY    HA440621   8.831   2.182   4.482  0.4611 -0.0148  1.8652
18006THY    CA540622   8.844   2.078   4.666 -0.8965 -0.1390 -0.6816
18006THY    CM140623   8.918   1.963   4.610 -0.4684  0.6447 -0.4463
18006THY    HM140624   9.011   1.993   4.559 -0.2016  1.5001  0.2198
18006THY    HM240625   8.860   1.927   4.524 -1.0552  0.8733 -0.0669
18006THY    HM340626   8.935   1.873   4.669  0.8082 -1.7481 -1.8728
18006THY    CA640627   8.816   2.085   4.807  0.0789  0.3733  0.1090
18006THY    HA640628   8.846   1.995   4.861 -0.3756 -1.3713 -1.1435
18007THY      O40629   4.927   5.404   4.553  0.5783 -0.0594 -0.4669
18007THY     HO40630   4.899   5.312   4.543 -2.9985 -1.9332  0.6513
18007THY    CA140631   5.059   5.406   4.564  0.0498 -0.0595 -0.2780
18007THY    CA240632   5.136   5.526   4.590 -0.2626 -0.8196  0.1332
18007THY    CP140633   5.063   5.653   4.618  0.1929 -0.9216  0.3663
18007THY    HP140634   4.963   5.659   4.572  0.2198 -0.9956  0.2435
18007THY    CP240635   5.130   5.783   4.566 -0.9492  0.3222 -0.3062
18007THY    HP240636   5.235   5.789   4.597 -0.6721 -0.6720  0.1004
18007THY    HP340637   5.090   5.876   4.609 -1.4113  0.2034 -0.4445
18007THY    HP440638   5.119   5.776   4.457 -0.8699  0.3505 -0.9406
18007THY    CP340639   5.042   5.679   4.766  0.7065 -0.0992  0.1169
18007THY    HP540640   5.142   5.677   4.811  0.8163 -0.3363  0.2172
18007THY    HP640641   4.983   5.602   4.816  1.3349  1.6899  0.7529
18007THY    HP740642   4.991   5.774   4.782  1.4028  0.2647  0.4371
18007THY    CA340643   5.274   5.518   4.607 -0.1109 -0.4376  0.4584
18007THY    HA340644   5.333   5.603   4.639 -1.8980 -0.4988  1.7718
18007THY    CA440645   5.336   5.393   4.593 -0.0264  0.5712  0.2700
18007THY    HA440646   5.443   5.387   4.612  0.5650 -1.7374  1.9608
18007THY    CA540647   5.267   5.280   4.566  0.3396  0.4286 -0.1242
18007THY    CM140648   5.346   5.144   4.556  0.3621  0.5243  0.4592
18007THY    HM140649   5.451   5.157   4.528  0.4261 -0.7759 -2.2734
18007THY    HM240650   5.298   5.094   4.471  0.8988  0.6329 -0.2466
18007THY    HM340651   5.330   5.094   4.653  0.1215 -0.2424 -1.0110
18007THY    CA640652   5.129   5.284   4.546  0.5228 -0.2146  0.3146
18007THY    HA640653   5.073   5.195   4.519  0.4729 -2.5397  0.9977
18008THY      O40654   0.248   2.197   6.848  0.1143 -0.1000 -0.3925
18008THY     HO40655   0.216   2.156   6.766  2.2544 -0.7434 -0.8835
18008THY    CA140656   0.220   2.334   6.842  0.1412 -0.8001 -0.1829
18008THY    CA240657   0.222   2.418   6.959  0.1341  0.0099 -0.0430
18008THY    CP140658   0.227   2.362   7.097 -0.4943 -0.9387 -0.5306
18008THY    HP140659   0.229   2.253   7.102  0.6058  0.6652 -0.4729
18008THY    CP240660   0.093   2.400   7.170  0.7749 -0.0680 -0.4177
18008THY    HP240661   0.020   2.348   7.106  2.1807 -1.6249 -0.5797
18008THY    HP340662   0.075   2.508   7.167  0.0295 -0.1611 -0.5330
18008THY    HP440663   0.105   2.361   7.271  3.4093 -0.2984 -0.3568
18008THY    CP340664   0.339   2.424   7.183 -0.1329  0.4162  0.2592
18008THY    HP540665   0.326   2.533   7.194 -1.0879 -1.9362  0.4316
18008THY    HP640666   0.435   2.409   7.133 -1.2052 -1.6050 -0.1996
18008THY    HP740667   0.351   2.382   7.284  0.8808 -0.0959 -0.7453
18008THY    CA340668   0.195   2.553   6.939 -0.1175  0.4829 -0.0278
18008THY    HA340669   0.194   2.626   7.019  1.1726  0.1375  0.3953
18008THY    CA440670   0.186   2.603   6.807 -0.1124 -0.6958  0.2260
18008THY    HA440671   0.189   2.707   6.776 -1.0644 -2.2690 -0.1785
18008THY    CA540672   0.185   2.518   6.698  0.5079  0.2004  0.5865
18008THY    CM140673   0.181   2.579   6.562 -0.1551 -0.5630 -0.0614
18008THY    HM140674   0.198   2.688   6.566  0.2060  0.2180 -0.1405
18008THY    HM240675   0.084   2.558   6.516  0.4262 -0.8014 -2.4182
18008THY    HM340676   0.265   2.549   6.498 -0.5192 -0.5056 -1.2550
18008THY    CA640677   0.208   2.383   6.714 -0.4173  0.6286 -0.1564
18008THY    HA640678   0.222   2.322   6.625 -1.2414  0.2118  0.2487
18009THY      O40679   6.962   1.919   5.418 -0.3618 -0.1459 -0.1882
18009THY     HO40680   7.025   1.927   5.492 -0.6626 -0.0811  2.9318
18009THY    CA140681   7.036   1.940   5.314  0.0834  0.6158 -0.6539
18009THY    CA240682   6.992   1.921   5.184 -0.2003  0.8135 -0.0296
18009THY    CP140683   6.849   1.887   5.161 -0.3631 -0.3677  0.3679
18009THY    HP140684   6.798   1.858   5.254  1.0648  1.0285  2.1231
18009THY    CP240685   6.826   1.762   5.081  0.0610  0.2082 -0.0941
18009THY    HP240686   6.890   1.764   4.992  2.5347  1.8898  0.7112
18009THY    HP340687   6.720   1.751   5.055 -0.1546  0.9551  0.1567
18009THY    HP440688   6.856   1.673   5.138  3.3095 -0.6188  0.3661
18009THY    CP340689   6.781   2.007   5.094 -0.5098 -0.5023 -0.4298
18009THY    HP540690   6.676   1.984   5.070 -1.5062  1.1427  1.9851
18009THY    HP640691   6.826   2.038   4.999 -2.0922 -1.7274 -1.6795
18009THY    HP740692   6.790   2.091   5.164 -0.1689  1.2355 -1.8662
18009THY    CA340693   7.082   1.939   5.074 -0.1861 -0.0171 -0.1953
18009THY    HA340694   7.049   1.913   4.974 -0.4307 -0.0398  0.1892
18009THY    CA440695   7.211   1.984   5.096 -0.2936 -0.9675 -0.2083
18009THY    HA440696   7.286   1.991   5.018  0.4828 -0.4176 -1.9203
18009THY    CA540697   7.251   2.009   5.229  0.3547  0.6547  0.0326
18009THY    CM140698   7.393   2.041   5.266  0.1081 -0.3284  0.2363
18009THY    HM140699   7.465   2.000   5.194  0.7566  0.4627 -0.0586
18009THY    HM240700   7.424   1.995   5.361  3.3481 -0.8119  1.2026
18009THY    HM340701   7.410   2.149   5.272 -1.1548 -0.0549  0.4387
18009THY    CA640702   7.162   1.986   5.329 -0.7391 -0.3546  0.3675
18009THY    HA640703   7.196   2.008   5.430  0.9710 -1.1721  1.6758
18010THY      O40704   7.005   6.660   6.665  0.7015 -0.3543 -0.0697
18010THY     HO40705   6.959   6.682   6.748  2.3581  0.7240 -0.4767
18010THY    CA140706   7.050   6.533   6.677 -0.5650  0.8243 -0.7993
18010THY    CA240707   7.115   6.477   6.567 -0.5441  0.2466  0.1302
18010THY    CP140708   7.132   6.557   6.434  0.2437  0.0327  0.8890
18010THY    HP140709   7.096   6.660   6.447 -2.2441  1.6199 -0.0802
18010THY    CP240710   7.043   6.493   6.320 -0.4818 -0.4545  0.2429
18010THY    HP240711   7.058   6.385   6.312 -1.2598 -0.3435  0.1216
18010THY    HP340712   7.045   6.542   6.222 -0.8051 -0.6907 -0.2068
18010THY    HP440713   6.941   6.499   6.361  0.7303  2.6384  2.1243
18010THY    CP340714   7.282   6.539   6.383  0.8909  0.1855 -0.2099
18010THY    HP540715   7.355   6.576   6.455  1.1740  1.5292 -3.0837
18010THY    HP640716   7.285   6.591   6.287 -0.8607  0.5404  0.5912
18010THY    HP740717   7.310   6.434   6.369  0.2594 -0.8167 -0.2576
18010THY    CA340718   7.143   6.343   6.579  0.5463  0.6609  0.5817
18010THY    HA340719   7.185   6.291   6.493 -1.8495 -0.6013  0.5912
18010THY    CA440720   7.130   6.272   6.696  0.3631  0.3461  0.1783
18010THY    HA440721   7.169   6.171   6.707  2.0617  0.0182  0.7824
18010THY    CA540722   7.064   6.332   6.807  0.2609 -0.3959  0.5546
18010THY    CM140723   7.052   6.256   6.940  0.1076 -0.1453 -0.2337
18010THY    HM140724   6.958   6.289   6.987  1.1154  3.2128 -1.6705
18010THY    HM240725   7.127   6.287   7.013 -1.7503  2.2595 -1.0505
18010THY    HM340726   7.039   6.147   6.943  0.9151  2.7320 -0.3484
18010THY    CA640727   7.036   6.469   6.797 -0.5742 -0.4390  0.0859
18010THY    HA640728   7.004   6.530   6.881  1.2414  0.9653 -0.8356
18011THY      O40729   7.241   4.087   2.011  0.2619 -0.1382  0.2503
18011THY     HO40730   7.218   4.057   1.921  0.8493 -0.4050  0.5921
18011THY    CA140731   7.266   4.217   2.002 -0.0851 -0.4726 -0.5148
18011THY    CA240732   7.299   4.293   2.120  0.4222 -0.4346 -0.3535
18011THY    CP140733   7.285   4.230   2.259 -0.5004 -0.6226  0.4110
18011THY    HP140734   7.266   4.122   2.254  1.2755  0.3474  0.0151
18011THY    CP240735   7.163   4.275   2.335  0.1563  0.1915  0.8288
18011THY    HP240736   7.181   4.379   2.367 -1.3851 -1.8847  1.8294
18011THY    HP340737   7.141   4.208   2.419 -0.7573 -0.5800  0.1473
18011THY    HP440738   7.074   4.282   2.271  0.8648 -0.8096  0.9026
18011THY    CP340739   7.416   4.248   2.348 -0.4263  0.1473 -0.3467
18011THY    HP540740   7.406   4.191   2.441 -0.5972  1.1083  1.2066
18011THY    HP640741   7.435   4.352   2.376 -0.8093  1.6420 -0.6640
18011THY    HP740742   7.509   4.207   2.305 -0.2077  0.5548 -0.2822
18011THY    CA340743   7.343   4.428   2.101 -0.3641  0.3639  0.2794
18011THY    HA340744   7.364   4.494   2.185  1.4634 -0.2993  0.6272
18011THY    CA440745   7.330   4.482   1.974 -0.0434  0.8712  0.5775
18011THY    HA440746   7.343   4.589   1.956 -4.0369  0.1131  1.1213
18011THY    CA540747   7.294   4.407   1.866  0.5644  0.1519  1.1253
18011THY    CM140748   7.283   4.473   1.730  0.0885  0.1374  0.2889
18011THY    HM140749   7.375   4.528   1.709 -0.0745 -1.5712 -0.0212
18011THY    HM240750   7.203   4.546   1.717  1.2015  2.3711  2.0106
18011THY    HM340751   7.285   4.393   1.655  0.2939 -0.5591  0.9345
18011THY    CA640752   7.261   4.270   1.875 -0.1376 -0.1774  0.3986
18011THY    HA640753   7.239   4.208   1.789 -1.0539  1.5923 -1.8781
18012THY      O40754   2.642   0.512   4.514 -0.1219  0.2034 -0.4045
18012THY     HO40755   2.604   0.469   4.436  0.4125  0.0267 -0.5707
18012THY    CA140756   2.551   0.612   4.542 -0.7915 -0.2779  0.3380
18012THY    CA240757   2.564   0.694   4.652 -0.7866 -0.1754  0.5726
18012THY    CP140758   2.685   0.676   4.748 -0.1263  0.0268 -0.3460
18012THY    HP140759   2.732   0.580   4.725  0.4869 -0.3710  0.0428
18012THY    CP240760   2.646   0.673   4.898  0.0184  0.1501  0.0312
18012THY    HP240761   2.613   0.774   4.928 -0.3777  0.2230 -0.1167
18012THY    HP340762   2.719   0.637   4.971 -0.4432 -0.1734 -1.6154
18012THY    HP440763   2.566   0.598   4.909 -0.7839 -1.9477  0.5131
18012THY    CP340764   2.798   0.778   4.716 -0.0121 -0.2041 -0.0095
18012THY    HP540765   2.758   0.874   4.752 -1.9192 -2.3293  0.0866
18012THY    HP640766   2.815   0.802   4.610  2.8487 -0.1312 -1.3589
18012THY    HP740767   2.891   0.749   4.765 -0.6961  0.0588 -1.8994
18012THY    CA340768   2.473   0.807   4.675 -0.3591 -0.3053 -0.2194
18012THY    HA340769   2.501   0.890   4.739 -0.6598  0.2699 -0.5609
18012THY    CA440770   2.357   0.811   4.598  0.5548  0.5289  0.4074
18012THY    HA440771   2.276   0.883   4.608 -0.9476  1.7149 -1.3592
18012THY    CA540772   2.343   0.725   4.485 -0.4128  0.0998  0.4785
18012THY    CM140773   2.219   0.734   4.387 -0.0841  0.5025  0.5986
18012THY    HM140774   2.237   0.683   4.292  0.2812 -2.0358  4.9591
18012THY    HM240775   2.186   0.835   4.360 -1.3567  1.3218  0.4296
18012THY    HM340776   2.134   0.690   4.440  0.7263 -0.2761 -2.1088
18012THY    CA640777   2.444   0.630   4.453  0.0030 -0.4490 -0.3393
18012THY    HA640778   2.422   0.549   4.384  1.7347 -1.4818  0.0221
18013THY      O40779   4.152   4.121   7.293  0.0415  0.1509  0.1401
18013THY     HO40780   4.130   4.145   7.201 -3.3670  1.1013  1.1681
18013THY    CA140781   4.070   4.216   7.359 -0.3169  0.5572 -0.0653
18013THY    CA240782   3.978   4.172   7.454  0.8523  0.3730 -0.5993
18013THY    CP140783   3.951   4.030   7.490  0.0796 -0.8611  0.5173
18013THY    HP140784   4.003   3.955   7.429  1.1598  1.7226 -0.9625
18013THY    CP240785   3.804   3.995   7.487 -0.0403 -0.4046 -0.3841
18013THY    HP240786   3.758   4.043   7.399  0.0443  0.9425  2.3780
18013THY    HP340787   3.750   4.043   7.569  0.2691 -1.5261  2.0569
18013THY    HP440788   3.788   3.887   7.496 -0.0144  0.7176 -0.3047
18013THY    CP340789   3.999   4.014   7.632 -0.1067 -0.0181  0.4908
18013THY    HP540790   4.097   4.064   7.633 -0.0657 -0.9770  0.4498
18013THY    HP640791   4.006   3.909   7.661  0.0422  2.0690  1.0434
18013THY    HP740792   3.930   4.051   7.708 -0.1652  0.6247 -0.8797
18013THY    CA340793   3.916   4.268   7.533 -0.1845 -0.5577 -0.2160
18013THY    HA340794   3.869   4.241   7.627 -0.8691 -1.3796 -2.0336
18013THY    CA440795   3.924   4.403   7.499 -0.1320  0.3299  0.1484
18013THY    HA440796   3.864   4.476   7.554  1.0007  1.7073  0.0832
18013THY    CA540797   4.000   4.441   7.387  0.5990 -0.8419 -0.1418
18013THY    CM140798   4.013   4.586   7.362 -0.4092 -0.0348 -0.2344
18013THY    HM140799   4.017   4.612   7.255  2.1957  0.2637  0.9782
18013THY    HM240800   4.097   4.637   7.412  1.4267 -0.5459 -2.5733
18013THY    HM340801   3.927   4.651   7.380 -0.8143 -3.3360  0.3481
18013THY    CA640802   4.081   4.348   7.321  0.8997 -0.2001  0.1239
18013THY    HA640803   4.135   4.389   7.236 -1.9601 -0.3240  4.2970
18014THY      O40804   1.832   6.569   2.606  0.5803 -0.1473 -0.1269
18014THY     HO40805   1.923   6.536   2.594  0.8189  0.0070  0.4483
18014THY    CA140806   1.775   6.473   2.678 -0.0438  1.1263 -0.7482
18014THY    CA240807   1.677   6.506   2.770  1.2479  0.1191  0.7796
18014THY    CP140808   1.624   6.649   2.790  0.7944 -0.3278 -0.3718
18014THY    HP140809   1.657   6.709   2.704  1.1362 -0.7386 -1.1478
18014THY    CP240810   1.678   6.695   2.922 -0.0677  0.5985  0.1136
18014THY    HP240811   1.787   6.699   2.929 -0.1226  1.4709  0.5095
18014THY    HP340812   1.634   6.638   3.005 -0.3276  0.5093  0.1810
18014THY    HP440813   1.633   6.795   2.934  0.1141 -0.7091  0.3654
18014THY    CP340814   1.469   6.659   2.784 -0.1433  0.1214 -0.2966
18014THY    HP540815   1.423   6.614   2.874 -2.4013  0.4328  2.3589
18014THY    HP640816   1.435   6.610   2.692  0.4250  0.0677 -0.6019
18014THY    HP740817   1.442   6.765   2.795  1.9978 -0.6973  0.3676
18014THY    CA340818   1.614   6.400   2.845 -0.2129 -0.1528 -0.5572
18014THY    HA340819   1.538   6.425   2.919  0.0086 -0.3184  0.6861
18014THY    CA440820   1.657   6.269   2.829 -0.1574  0.3791  0.2146
18014THY    HA440821   1.609   6.190   2.886  1.0929 -1.1418 -1.7212
18014THY    CA540822   1.775   6.247   2.748  0.0090  0.1546 -0.0856
18014THY    CM140823   1.812   6.103   2.734  0.6565  0.6269 -0.1845
18014THY    HM140824   1.896   6.089   2.665 -0.8455 -1.0663 -1.1285
18014THY    HM240825   1.727   6.040   2.707  1.6010 -2.5592 -0.2397
18014THY    HM340826   1.836   6.061   2.832 -0.4405  1.6577  1.4665
18014THY    CA640827   1.826   6.343   2.662 -0.3616  0.5930 -1.1748
18014THY    HA640828   1.907   6.330   2.591  0.3686  1.3123 -0.5764
18015THY      O40829   7.450   2.764   4.131 -0.1140 -0.1139  0.3808
18015THY     HO40830   7.470   2.698   4.062 -0.0224  1.0358 -0.8307
18015THY    CA140831   7.522   2.872   4.099 -0.1770 -0.3478 -0.5752
18015THY    CA240832   7.548   2.974   4.191 -0.4963 -0.7626 -0.4930
18015THY    CP140833   7.499   2.976   4.337 -0.8350 -0.3899 -0.3123
18015THY    HP140834   7.425   2.898   4.358 -0.3591 -2.2145 -1.3089
18015THY    CP240835   7.414   3.104   4.358 -0.5659 -0.0378 -0.4058
18015THY    HP240836   7.455   3.193   4.310 -1.0789 -2.7508 -1.5490
18015THY    HP340837   7.409   3.126   4.465 -0.8788 -0.1794  0.2117
18015THY    HP440838   7.320   3.085   4.305 -0.5501 -0.1354 -0.2059
18015THY    CP340839   7.607   2.967   4.442 -0.2851  0.2140 -0.9772
18015THY    HP540840   7.661   3.062   4.429 -1.8023 -1.6830 -0.3059
18015THY    HP640841   7.673   2.881   4.428  1.1426 -0.6663  0.2035
18015THY    HP740842   7.569   2.969   4.545  1.1937  0.8815  3.1882
18015THY    CA340843   7.636   3.077   4.148 -0.2940  0.4357 -0.1261
18015THY    HA340844   7.657   3.163   4.211 -2.6319  0.3592  0.5593
18015THY    CA440845   7.688   3.077   4.019  0.0202  0.1091 -0.3058
18015THY    HA440846   7.768   3.147   3.996 -0.4965  0.7340  0.4994
18015THY    CA540847   7.658   2.976   3.929  0.3524 -0.1818 -0.5520
18015THY    CM140848   7.711   2.977   3.786  0.8011 -0.2624 -0.2110
18015THY    HM140849   7.820   2.971   3.781  1.0380  1.1214  1.9325
18015THY    HM240850   7.691   3.072   3.734  5.3989  2.0258  2.3078
18015THY    HM340851   7.666   2.900   3.722 -1.2885 -2.9039  2.9258
18015THY    CA640852   7.576   2.872   3.963  0.8162  0.5289  0.0894
18015THY    HA640853   7.544   2.798   3.890 -1.4761  0.0956  1.4021
18016THY      O40854   1.127   5.435   7.258 -0.4449 -0.1445 -0.4406
18016THY     HO40855   1.093   5.525   7.269 -0.9474 -2.2772 -0.3134
18016THY    CA140856   1.025   5.350   7.259 -0.1406 -0.7688  0.4473
18016THY    CA240857   1.027   5.232   7.187  0.3324 -0.1601  0.8896
18016THY    CP140858   1.138   5.205   7.089  0.2565  0.3606  0.3414
18016THY    HP140859   1.205   5.290   7.074 -0.7943 -0.3863  1.0643
18016THY    CP240860   1.090   5.187   6.951 -0.3677  0.5646 -0.1859
18016THY    HP240861   1.174   5.147   6.893 -0.2360 -0.7490  1.8537
18016THY    HP340862   1.061   5.283   6.906 -1.9274  1.9987  0.0639
18016THY    HP440863   1.008   5.114   6.939 -0.1590 -0.1613 -0.3115
18016THY    CP340864   1.223   5.097   7.143  0.2151 -0.2984 -0.3038
18016THY    HP540865   1.161   5.007   7.152  0.9723 -1.2687 -0.9443
18016THY    HP640866   1.256   5.120   7.245  2.0079 -0.8326 -0.3130
18016THY    HP740867   1.310   5.084   7.078  1.6077  0.5895  3.3757
18016THY    CA340868   0.915   5.146   7.203 -0.6860  0.0953 -0.1774
18016THY    HA340869   0.911   5.057   7.141 -1.1204  0.0994 -0.1633
18016THY    CA440870   0.816   5.168   7.292  0.4857 -0.2979 -0.6538
18016THY    HA440871   0.736   5.098   7.312  0.6615  2.7850 -0.0862
18016THY    CA540872   0.817   5.282   7.369  0.8556  0.3932 -0.0296
18016THY    CM140873   0.719   5.308   7.470 -0.0840  0.2845 -0.5426
18016THY    HM140874   0.739   5.262   7.567  3.5028 -0.1958 -0.2413
18016THY    HM240875   0.622   5.261   7.450 -0.8686 -0.1841  1.1888
18016THY    HM340876   0.696   5.415   7.470 -0.0322  1.9833 -0.5154
18016THY    CA640877   0.918   5.376   7.347  0.4507  0.0454  0.0848
18016THY    HA640878   0.912   5.456   7.420 -1.4858  2.0716 -1.7533
18017THY      O40879   4.507   8.647   3.363 -0.8098 -0.1567  0.1411
18017THY     HO40880   4.561   8.614   3.289 -1.3431  0.5349 -2.5054
18017THY    CA140881   4.460   8.537   3.428  0.2037 -0.3410 -0.5002
18017THY    CA240882   4.337   8.539   3.500 -0.2893 -0.5312 -0.2548
18017THY    CP140883   4.258   8.669   3.521 -0.3770 -0.6465  0.3769
18017THY    HP140884   4.253   8.728   3.428 -0.1114 -0.9243 -0.0349
18017THY    CP240885   4.325   8.752   3.623  0.4288  0.5330 -0.2079
18017THY    HP240886   4.261   8.836   3.653  0.0798 -1.3630  0.2491
18017THY    HP340887   4.412   8.795   3.573  2.7031  2.3276 -2.4226
18017THY    HP440888   4.349   8.685   3.706 -2.3635 -0.1697 -2.2775
18017THY    CP340889   4.110   8.649   3.562 -0.5836  0.4261  0.8487
18017THY    HP540890   4.098   8.600   3.660 -1.3888  1.3189  2.7218
18017THY    HP640891   4.069   8.581   3.487  0.5771 -0.1880  0.7924
18017THY    HP740892   4.063   8.748   3.570  0.4917  1.1435  1.3292
18017THY    CA340893   4.292   8.420   3.567  0.3851 -0.4300 -0.2726
18017THY    HA340894   4.203   8.417   3.630  0.5888 -0.0952  0.3399
18017THY    CA440895   4.367   8.310   3.565  0.2962  1.0199 -0.0222
18017THY    HA440896   4.345   8.216   3.614  0.3046 -1.8843 -1.6601
18017THY    CA540897   4.480   8.307   3.480 -0.5267  0.4021 -0.3956
18017THY    CM140898   4.558   8.189   3.457 -0.2051  0.4573 -0.3480
18017THY    HM140899   4.513   8.124   3.381 -3.5142  0.5350  1.6144
18017THY    HM240900   4.556   8.121   3.543  0.6868 -1.8727 -3.5755
18017THY    HM340901   4.662   8.210   3.429 -0.1775  1.0603  0.3514
18017THY    CA640902   4.528   8.419   3.414  0.0046 -0.2183 -0.8151
18017THY    HA640903   4.618   8.412   3.353  0.7876  0.9351 -1.0693
18018THY      O40904   0.824   8.133   1.884 -0.0944 -0.2926 -0.0461
18018THY     HO40905   0.910   8.170   1.857  0.1941 -0.1990 -0.6386
18018THY    CA140906   0.847   8.012   1.943 -0.8265 -0.2780  0.4664
18018THY    CA240907   0.744   7.919   1.927  0.1731 -0.4332  0.5485
18018THY    CP140908   0.628   7.945   1.830  0.1641  0.3594  0.2758
18018THY    HP140909   0.661   8.006   1.745 -0.2632 -1.1754 -1.5527
18018THY    CP240910   0.522   8.012   1.919  0.2403 -0.1029  0.2396
18018THY    HP240911   0.432   8.051   1.870  0.9712  0.9094  3.5196
18018THY    HP340912   0.570   8.097   1.968  2.1423 -0.3661 -0.6258
18018THY    HP440913   0.481   7.956   2.004 -0.8086  1.3909  3.0816
18018THY    CP340914   0.563   7.827   1.763 -0.4068  0.1816 -0.2126
18018THY    HP540915   0.500   7.872   1.685 -0.4217  1.9477  3.1880
18018THY    HP640916   0.495   7.768   1.826  0.5970 -0.4611 -2.1525
18018THY    HP740917   0.634   7.758   1.716 -1.0477  0.1102 -0.8374
18018THY    CA340918   0.751   7.804   2.009  0.0294 -0.6253  0.1551
18018THY    HA340919   0.672   7.730   1.998  0.1175  2.2185 -0.4582
18018THY    CA440920   0.865   7.787   2.101 -0.3395  0.9827  0.4169
18018THY    HA440921   0.862   7.699   2.165 -1.4457  0.4940  0.0842
18018THY    CA540922   0.974   7.877   2.100  0.2996 -0.6245  0.3149
18018THY    CM140923   1.092   7.863   2.182 -0.8767 -0.1032 -0.3579
18018THY    HM140924   1.111   7.935   2.263  0.9753  0.2454 -1.1734
18018THY    HM240925   1.181   7.868   2.117 -0.6078 -0.0728 -3.1965
18018THY    HM340926   1.093   7.764   2.227 -0.7312 -1.2754 -0.9090
18018THY    CA640927   0.963   7.991   2.017  0.7649  0.2849  0.0710
18018THY    HA640928   1.044   8.063   2.016  0.5565  1.5522  0.3470
18019THY      O40929   6.654   5.742   3.442 -0.0448  0.4271  0.6166
18019THY     HO40930   6.606   5.732   3.526 -1.0574 -0.3287 -1.5518
18019THY    CA140931   6.582   5.676   3.351 -0.2094  0.4264 -0.0959
18019THY    CA240932   6.631   5.618   3.235 -0.5597  0.2890 -0.2151
18019THY    CP140933   6.785   5.614   3.208  0.6678  0.7472  0.0596
18019THY    HP140934   6.836   5.689   3.268  1.3527 -1.0972  1.1375
18019THY    CP240935   6.817   5.648   3.064  0.3600 -0.7123 -0.4798
18019THY    HP240936   6.745   5.719   3.023 -0.4091 -0.8576 -1.3248
18019THY    HP340937   6.824   5.562   2.997  2.6206  0.4003 -1.2550
18019THY    HP440938   6.917   5.693   3.057  2.2291  2.0428 -3.6890
18019THY    CP340939   6.838   5.475   3.246 -0.1201 -0.3115 -0.4548
18019THY    HP540940   6.772   5.397   3.206 -0.5808 -0.9166  0.2265
18019THY    HP640941   6.847   5.473   3.355 -0.0774 -0.2624  1.2513
18019THY    HP740942   6.937   5.449   3.207  0.4512  1.8525 -1.8018
18019THY    CA340943   6.539   5.560   3.143  0.3737 -0.0318 -0.3447
18019THY    HA340944   6.573   5.519   3.048 -1.9455 -0.5115 -1.3290
18019THY    CA440945   6.398   5.571   3.163 -0.7933  0.5688  1.0077
18019THY    HA440946   6.327   5.533   3.091  0.3066 -0.0827  0.1118
18019THY    CA540947   6.357   5.619   3.286 -0.9405 -0.1206 -0.3338
18019THY    CM140948   6.214   5.613   3.332  0.6751  0.1469 -0.6332
18019THY    HM140949   6.137   5.667   3.276  2.1193  0.3068  1.7400
18019THY    HM240950   6.195   5.659   3.430 -1.6974 -1.0011  1.0056
18019THY    HM340951   6.174   5.511   3.329 -0.1020  0.1981 -0.3321
18019THY    CA640952   6.451   5.676   3.377 -0.3262 -0.1182 -0.1190
18019THY    HA640953   6.421   5.737   3.462  1.0926  0.3829 -0.0717
18020THY      O40954   6.239   6.973   3.305  0.0236 -0.2888 -0.2479
18020THY     HO40955   6.206   6.883   3.289  0.8664  0.4828 -0.7141
18020THY    CA140956   6.360   6.947   3.352 -0.5350  0.3902  0.0624
18020THY    CA240957   6.463   7.039   3.351 -0.5835  0.4087  0.0522
18020THY    CP140958   6.461   7.148   3.250  0.7815 -0.3828 -0.1381
18020THY    HP140959   6.366   7.159   3.196  2.3496 -3.1380  1.0626
18020THY    CP240960   6.558   7.114   3.142 -0.2908 -0.4034 -0.0482
18020THY    HP240961   6.662   7.096   3.173 -0.6913  0.6011 -0.6864
18020THY    HP340962   6.558   7.190   3.063 -1.7107  0.0644  0.4660
18020THY    HP440963   6.514   7.024   3.097 -0.6060  1.1876 -0.7245
18020THY    CP340964   6.477   7.286   3.314  0.3979  0.0712  0.1252
18020THY    HP540965   6.579   7.300   3.349 -0.0483  0.9186  1.4419
18020THY    HP640966   6.407   7.292   3.399  0.0453 -0.0682 -1.3643
18020THY    HP740967   6.449   7.364   3.242 -0.5513  0.0272 -0.2390
18020THY    CA340968   6.582   7.002   3.419  0.6438  0.1636 -0.0570
18020THY    HA340969   6.671   7.064   3.409  0.3532 -0.1664  0.3114
18020THY    CA440970   6.596   6.882   3.485  0.2898 -0.4382 -0.1658
18020THY    HA440971   6.690   6.860   3.534  0.3536 -1.1337 -1.6016
18020THY    CA540972   6.498   6.786   3.482  0.1384 -0.2950 -0.0159
18020THY    CM140973   6.516   6.657   3.555 -0.6343 -0.3740 -0.6038
18020THY    HM140974   6.522   6.688   3.660 -0.8975 -1.1156  2.2445
18020THY    HM240975   6.610   6.612   3.522 -0.2073  1.8827 -1.5429
18020THY    HM340976   6.435   6.583   3.546 -1.0988 -0.2877 -0.1165
18020THY    CA640977   6.375   6.821   3.418 -0.2122  0.2412  0.7778
18020THY    HA640978   6.297   6.746   3.412  1.4370 -0.5055 -0.9622
18021THY      O40979   5.446   6.922   7.501  0.0151  0.3246 -0.2698
18021THY     HO40980   5.414   7.012   7.519 -0.4110 -0.8009 -0.1801
18021THY    CA140981   5.371   6.839   7.582  0.4011  0.0016  0.1235
18021THY    CA240982   5.365   6.699   7.554 -0.2701  0.3614 -0.4494
18021THY    CP140983   5.430   6.643   7.427 -0.0104  0.2500 -0.0950
18021THY    HP140984   5.523   6.700   7.414 -0.2214  2.5210  0.8656
18021THY    CP240985   5.341   6.674   7.298  0.6919  0.9978  0.2610
18021THY    HP240986   5.389   6.664   7.200  2.4658  1.8419  0.2535
18021THY    HP340987   5.318   6.781   7.303  2.1759  0.8512  0.6048
18021THY    HP440988   5.250   6.612   7.300  1.6164  1.0384 -1.1321
18021THY    CP340989   5.467   6.498   7.429 -0.1194  0.1185  0.4726
18021THY    HP540990   5.543   6.479   7.505  0.9393 -0.9884  0.1792
18021THY    HP640991   5.513   6.466   7.335 -1.9462 -0.5514 -0.3590
18021THY    HP740992   5.377   6.435   7.443 -0.5036 -1.3046  0.6675
18021THY    CA340993   5.292   6.615   7.641 -0.6408  0.1452 -0.0334
18021THY    HA340994   5.293   6.506   7.639  0.6477  2.1857 -0.0998
18021THY    CA440995   5.222   6.672   7.747  0.4355  0.6532 -0.0120
18021THY    HA440996   5.168   6.605   7.813  0.5208 -0.7029 -1.4705
18021THY    CA540997   5.220   6.810   7.771  0.0715  0.0533 -0.3044
18021THY    CM140998   5.147   6.866   7.896 -0.1969  0.4879 -0.3110
18021THY    HM140999   5.199   6.825   7.984 -1.3910  1.5955  0.4727
18021THY    HM241000   5.050   6.815   7.902 -0.7575  0.2999  0.6995
18021THY    HM341001   5.134   6.974   7.904  0.1631  2.3420 -0.3683
18021THY    CA641002   5.294   6.893   7.682 -0.0074  0.0791  0.5761
18021THY    HA641003   5.279   7.000   7.700 -0.8441  0.7440  0.3600
18022THY      O41004   3.785   3.399   3.145  0.7950  0.2754 -0.1808
18022THY     HO41005   3.835   3.336   3.090 -1.0039 -1.2881 -0.3138
18022THY    CA141006   3.785   3.499   3.058  0.5610  0.2369 -0.1041
18022THY    CA241007   3.674   3.590   3.041  1.0282 -0.3769  0.2906
18022THY    CP141008   3.558   3.566   3.129  0.5672  0.7106  0.2456
18022THY    HP141009   3.598   3.534   3.226  1.9735  0.6724  1.7774
18022THY    CP241010   3.465   3.457   3.082  0.8116  0.2469  0.1568
18022THY    HP241011   3.378   3.439   3.147  0.5952 -0.5339 -1.8584
18022THY    HP341012   3.514   3.360   3.067 -0.5185  0.3634 -0.5614
18022THY    HP441013   3.421   3.487   2.987  1.2330  0.6084  2.0349
18022THY    CP341014   3.482   3.694   3.163  0.0879  0.2663 -0.1068
18022THY    HP541015   3.436   3.662   3.257  0.7253 -0.3641 -3.2421
18022THY    HP641016   3.406   3.726   3.090 -0.1780  0.0064 -1.2965
18022THY    HP741017   3.560   3.769   3.181  0.1420 -1.7723  0.3870
18022THY    CA341018   3.686   3.689   2.945  1.2028 -0.0552  0.4580
18022THY    HA341019   3.597   3.748   2.927  0.2777  1.2658 -0.4434
18022THY    CA441020   3.802   3.700   2.871 -0.8358  0.3788 -0.5764
18022THY    HA441021   3.824   3.778   2.799 -1.9015 -0.9574 -1.4674
18022THY    CA541022   3.912   3.612   2.896  0.5589 -0.2588 -0.2621
18022THY    CM141023   4.051   3.632   2.829 -0.2501 -0.7664 -0.1591
18022THY    HM141024   4.052   3.588   2.729 -0.8805 -0.9816  0.3080
18022THY    HM241025   4.124   3.573   2.884 -1.1478  0.9009  0.2197
18022THY    HM341026   4.092   3.734   2.828 -1.7913  1.9081  0.5862
18022THY    CA641027   3.904   3.509   2.990 -0.0720  0.2549  0.3657
18022THY    HA641028   3.993   3.454   3.019  0.9055 -2.2204  0.5267
18023THY      O41029   6.909   6.519   5.685 -0.0354 -0.0172  0.1441
18023THY     HO41030   6.942   6.441   5.638 -0.0308 -0.9668  0.7012
18023THY    CA141031   7.018   6.599   5.680  0.9069 -0.1151  0.8456
18023THY    CA241032   7.014   6.727   5.735 -0.3564  0.0761  0.3665
18023THY    CP141033   6.894   6.785   5.814 -0.2371 -0.0031  0.1712
18023THY    HP141034   6.803   6.748   5.767 -0.6516  1.3996 -0.6935
18023THY    CP241035   6.898   6.940   5.821  0.7235  0.6326  0.0361
18023THY    HP241036   6.806   6.980   5.864  1.1679  1.7838 -0.1313
18023THY    HP341037   6.906   6.968   5.716 -1.7100  0.0388 -1.2389
18023THY    HP441038   6.980   6.975   5.884  0.6142  0.2507  0.9858
18023THY    CP341039   6.889   6.730   5.962 -0.5196  0.9026 -0.2251
18023THY    HP541040   6.977   6.754   6.024  0.2442 -0.6238  1.0916
18023THY    HP641041   6.886   6.621   5.970  0.0226 -0.4024 -0.3521
18023THY    HP741042   6.808   6.770   6.024 -0.0262  1.1745  0.3834
18023THY    CA341043   7.140   6.788   5.749  0.0414  0.2838 -0.3965
18023THY    HA341044   7.155   6.877   5.810  0.8785  0.9126 -0.9511
18023THY    CA441045   7.255   6.736   5.682  0.0138 -0.9030  0.2165
18023THY    HA441046   7.349   6.790   5.672  0.4687 -1.8489 -0.7272
18023THY    CA541047   7.251   6.618   5.610 -0.0618 -0.2594  0.4461
18023THY    CM141048   7.368   6.560   5.542  0.4363 -0.3845  0.3774
18023THY    HM141049   7.386   6.609   5.445 -0.6596 -0.6153  0.3348
18023THY    HM241050   7.357   6.455   5.514 -0.3408 -0.0173  0.3518
18023THY    HM341051   7.453   6.567   5.611 -0.3605  0.4860  2.0762
18023THY    CA641052   7.132   6.545   5.619  0.2119 -0.1364  0.1517
18023THY    HA641053   7.132   6.445   5.578  0.0730 -0.0279  0.1056
18024THY      O41054   3.954   2.563   6.947 -0.0397  0.4055  0.7173
18024THY     HO41055   3.870   2.570   6.996 -0.3426  0.0379 -0.2145
18024THY    CA141056   3.922   2.594   6.816 -0.0768 -0.3084 -0.1762
18024THY    CA241057   4.001   2.542   6.715  0.6064  0.4209 -0.3140
18024THY    CP141058   4.119   2.460   6.743  0.1288  0.6025 -0.5531
18024THY    HP141059   4.127   2.424   6.846  2.6956  1.7386  2.7050
18024THY    CP241060   4.252   2.534   6.726  0.1646  0.0184 -0.7254
18024THY    HP241061   4.251   2.617   6.798 -0.7569 -2.4925  1.5633
18024THY    HP341062   4.246   2.573   6.624 -0.3596  1.1211  2.3693
18024THY    HP441063   4.335   2.464   6.741  2.5932  0.3523  2.0491
18024THY    CP341064   4.110   2.340   6.647  0.3675  0.8490 -0.1489
18024THY    HP541065   4.108   2.360   6.539  1.4314  0.6667 -0.9735
18024THY    HP641066   4.039   2.263   6.680  1.0719  0.2280 -1.0928
18024THY    HP741067   4.198   2.278   6.668  0.7875 -0.5556 -0.0803
18024THY    CA341068   3.974   2.586   6.580  0.2795  0.2572 -0.7300
18024THY    HA341069   4.039   2.564   6.496 -0.4991 -1.0201  1.4951
18024THY    CA441070   3.861   2.667   6.555 -0.3818 -0.3734  0.3553
18024THY    HA441071   3.838   2.704   6.456 -2.3276  0.3114  1.1385
18024THY    CA541072   3.778   2.711   6.654  0.0614 -0.7584 -0.1259
18024THY    CM141073   3.672   2.810   6.622  0.1380  0.1754  0.1983
18024THY    HM141074   3.631   2.784   6.524  0.2219  0.2927 -0.3809
18024THY    HM241075   3.700   2.916   6.626  0.1888  1.6463  0.1495
18024THY    HM341076   3.582   2.823   6.682 -0.7828 -1.1874  0.2944
18024THY    CA641077   3.808   2.669   6.788 -0.4009 -0.2912 -0.0154
18024THY    HA641078   3.743   2.702   6.869 -1.9440 -0.7963 -1.6412
18025THY      O41079   9.015   1.270   2.874 -0.3048  1.0607  0.3165
18025THY     HO41080   9.066   1.277   2.791 -1.9804 -0.0358  0.1005
18025THY    CA141081   9.087   1.184   2.944 -0.0243  0.1053  0.2343
18025THY    CA241082   9.035   1.057   2.972 -0.4413 -0.1809  0.0575
18025THY    CP141083   8.919   1.008   2.889  0.2461  0.1392 -0.1953
18025THY    HP141084   8.882   1.082   2.817  0.9720  0.1711  0.2098
18025THY    CP241085   8.818   0.933   2.977  0.0916  0.2985  0.1612
18025THY    HP241086   8.732   0.895   2.920 -0.8484 -0.1613  2.7425
18025THY    HP341087   8.777   1.000   3.053 -1.3837 -0.6705  0.3999
18025THY    HP441088   8.858   0.847   3.031  1.2542 -0.7016  0.0503
18025THY    CP341089   8.975   0.910   2.782  0.3337 -0.2702  0.4408
18025THY    HP541090   8.904   0.916   2.699 -0.6746  0.6311  1.2325
18025THY    HP641091   8.993   0.811   2.826  0.8013 -0.5201  0.4123
18025THY    HP741092   9.073   0.945   2.746  2.0417 -0.4214 -3.8634
18025THY    CA341093   9.105   0.967   3.056 -0.5257  0.1005  0.2657
18025THY    HA341094   9.078   0.864   3.078 -1.5653 -2.7237 -0.1490
18025THY    CA441095   9.228   1.012   3.112  0.3009 -0.3239  0.5225
18025THY    HA441096   9.272   0.953   3.192 -1.0132  0.1380  0.1205
18025THY    CA541097   9.275   1.140   3.093 -0.3769  0.1855 -0.5024
18025THY    CM141098   9.385   1.189   3.176  0.6505  0.1952  1.1059
18025THY    HM141099   9.367   1.166   3.282 -2.8472 -0.3717  0.6997
18025THY    HM241100   9.393   1.297   3.161  3.1139  1.9344  1.2567
18025THY    HM341101   9.482   1.145   3.149  0.2708 -1.4752  1.2408
18025THY    CA641102   9.210   1.227   3.004 -0.4884 -0.4550 -0.2266
18025THY    HA641103   9.252   1.326   2.990  1.1693  0.0804 -0.8259
18026THY      O41104   8.662   8.196   7.001 -0.6540  0.2319  0.2747
18026THY     HO41105   8.659   8.293   7.001 -0.1719  0.0949  0.2886
18026THY    CA141106   8.581   8.159   7.101  0.2464 -0.9622  0.5789
18026THY    CA241107   8.508   8.040   7.097  0.4726  0.4764  0.7567
18026THY    CP141108   8.478   7.972   6.958 -0.0187 -0.6042 -0.5841
18026THY    HP141109   8.515   8.034   6.875 -1.8032 -0.0119  1.4022
18026THY    CP241110   8.328   7.947   6.936 -0.0447  0.5430  1.1128
18026THY    HP241111   8.300   7.901   6.840  0.3893  0.4940  0.9503
18026THY    HP341112   8.268   8.039   6.928 -1.0873 -1.0329  0.3398
18026THY    HP441113   8.286   7.889   7.019 -1.3831 -0.0786  1.1465
18026THY    CP341114   8.572   7.853   6.943 -0.1605  0.1673  0.7305
18026THY    HP541115   8.547   7.804   6.849  0.1189  0.3839  0.1689
18026THY    HP641116   8.530   7.780   7.013  0.4814  1.1825  1.3006
18026THY    HP741117   8.678   7.868   6.969 -0.2192  0.1209  1.2396
18026THY    CA341118   8.451   7.996   7.219  0.1035 -0.4276  0.6934
18026THY    HA341119   8.387   7.908   7.222 -0.4079  0.9587  1.0763
18026THY    CA441120   8.461   8.066   7.339 -0.5060 -0.2558  0.4243
18026THY    HA441121   8.428   8.021   7.432 -0.7864 -0.6096 -0.1237
18026THY    CA541122   8.552   8.177   7.339  0.4959  0.0016  0.2632
18026THY    CM141123   8.574   8.254   7.468  0.1265  0.3595  0.5006
18026THY    HM141124   8.544   8.357   7.446 -2.2474 -1.2864 -0.4513
18026THY    HM241125   8.680   8.250   7.498 -0.2212  1.5123 -2.0513
18026THY    HM341126   8.524   8.214   7.556  0.6898 -0.0510 -1.1918
18026THY    CA641127   8.606   8.221   7.218  0.0143  0.1809  0.0403
18026THY    HA641128   8.676   8.303   7.217  0.3827  1.4877 -0.2432
18027THY      O41129   3.777   7.618   7.756  0.1578 -0.0896  0.1635
18027THY     HO41130   3.740   7.610   7.846  0.5233 -0.0969 -2.0295
18027THY    CA141131   3.912   7.584   7.774  0.0942 -0.3632 -0.1040
18027THY    CA241132   4.013   7.575   7.675  0.3816 -0.1460  0.0344
18027THY    CP141133   3.984   7.607   7.530  0.4339  0.2888  0.1556
18027THY    HP141134   3.877   7.617   7.511  0.2640 -1.0075 -3.1515
18027THY    CP241135   4.040   7.508   7.432 -0.4672  0.5707 -0.8446
18027THY    HP241136   4.004   7.536   7.332  0.2459  0.4314 -0.3928
18027THY    HP341137   4.008   7.406   7.454 -2.3239 -0.2201 -0.4887
18027THY    HP441138   4.148   7.520   7.424 -0.4662 -3.8438 -2.0408
18027THY    CP341139   4.030   7.747   7.486  0.2388  0.7368  0.5305
18027THY    HP541140   4.139   7.751   7.482  0.4300  2.1625 -1.4663
18027THY    HP641141   3.980   7.817   7.555  0.2166  1.4515 -0.1737
18027THY    HP741142   3.990   7.774   7.388  1.3826 -0.0820 -0.6524
18027THY    CA341143   4.145   7.543   7.706  0.2606  0.3832  0.2528
18027THY    HA341144   4.220   7.536   7.628 -2.0368 -1.9746 -0.1430
18027THY    CA441145   4.178   7.504   7.840 -0.1314  0.6644  0.4954
18027THY    HA441146   4.280   7.477   7.863 -0.2910  0.6841 -0.1008
18027THY    CA541147   4.081   7.511   7.936  0.1269 -0.2812 -0.3808
18027THY    CM141148   4.110   7.496   8.084  0.5080 -0.1520  0.3318
18027THY    HM141149   4.167   7.403   8.089  0.9333 -0.8187  0.5525
18027THY    HM241150   4.013   7.498   8.135  0.3352 -0.1943 -2.6629
18027THY    HM341151   4.162   7.583   8.126  0.4230  0.2003  0.2147
18027THY    CA641152   3.950   7.555   7.906 -0.3308 -0.4531 -0.5515
18027THY    HA641153   3.876   7.571   7.984  0.5586 -0.2682  4.1452
18028THY      O41154   4.856   3.210   3.084  0.5953 -0.4922  0.0022
18028THY     HO41155   4.821   3.119   3.085  0.1561 -2.1805  0.1179
18028THY    CA141156   4.869   3.249   3.213  0.2083 -0.2660 -0.2017
18028THY    CA241157   4.994   3.289   3.270 -0.1647  0.7581  0.3339
18028THY    CP141158   5.124   3.283   3.184  0.0969  0.2531 -0.2016
18028THY    HP141159   5.101   3.241   3.086 -0.8324 -0.4784  1.8581
18028THY    CP241160   5.228   3.188   3.240  0.0155 -0.1964  0.0088
18028THY    HP241161   5.238   3.218   3.345 -0.6058  0.5484 -2.1731
18028THY    HP341162   5.323   3.173   3.187 -0.1050 -0.9373  1.6549
18028THY    HP441163   5.187   3.087   3.244  1.5777 -0.9700 -0.6975
18028THY    CP341164   5.182   3.425   3.153  0.6033 -1.0242 -0.1799
18028THY    HP541165   5.279   3.423   3.102  0.5778 -1.0629 -1.0628
18028THY    HP641166   5.191   3.493   3.239 -0.8187 -1.6249  0.8111
18028THY    HP741167   5.118   3.481   3.084  1.0681  0.0041  1.7155
18028THY    CA341168   4.997   3.335   3.401  0.5696 -0.4705 -0.0157
18028THY    HA341169   5.084   3.365   3.459  0.6367 -0.8505  0.5302
18028THY    CA441170   4.876   3.361   3.467 -0.4208  0.1315  0.2186
18028THY    HA441171   4.879   3.406   3.565  1.8702 -0.4781  1.5448
18028THY    CA541172   4.750   3.333   3.403 -0.4043  0.2181  0.2730
18028THY    CM141173   4.618   3.354   3.471 -0.2685 -0.3650  0.0381
18028THY    HM141174   4.536   3.396   3.412  0.9530 -1.4436  0.9722
18028THY    HM241175   4.630   3.422   3.556 -0.1994  2.8957 -3.6761
18028THY    HM341176   4.582   3.255   3.501 -0.6712  0.7057  0.4862
18028THY    CA641177   4.748   3.276   3.282 -0.5795  0.2288  0.0592
18028THY    HA641178   4.657   3.248   3.229  0.2268 -0.8664 -0.5281
18029THY      O41179   2.023   9.016   5.596 -1.2217 -0.5776 -0.0102
18029THY     HO41180   2.058   8.925   5.587  0.8729 -2.3473  0.8604
18029THY    CA141181   1.892   9.001   5.633 -0.3622 -0.0689  0.4674
18029THY    CA241182   1.789   9.088   5.590 -0.3556  0.1739  0.5309
18029THY    CP141183   1.824   9.211   5.489  0.3095 -0.0438  0.2480
18029THY    HP141184   1.930   9.222   5.461  0.7338  1.7153  1.0067
18029THY    CP241185   1.769   9.352   5.529  0.3899  0.1250 -0.8341
18029THY    HP241186   1.660   9.357   5.525  0.3491  0.0372 -1.6766
18029THY    HP341187   1.805   9.431   5.462 -2.7978  0.5355  1.1312
18029THY    HP441188   1.791   9.369   5.635 -1.0115  0.3984 -0.6564
18029THY    CP341189   1.774   9.173   5.349  0.9358 -0.1162 -0.1945
18029THY    HP541190   1.796   9.257   5.283 -3.2423 -1.3068  0.1835
18029THY    HP641191   1.665   9.163   5.352  1.1181  0.2530 -2.9822
18029THY    HP741192   1.813   9.072   5.331 -1.5224  0.9343 -1.3987
18029THY    CA341193   1.659   9.079   5.633  0.5709 -0.5817  0.3216
18029THY    HA341194   1.583   9.147   5.596 -0.5384 -0.1409 -0.6252
18029THY    CA441195   1.621   8.962   5.707 -0.7611  0.3160 -0.4917
18029THY    HA441196   1.517   8.954   5.738 -1.3175 -0.9355  1.2807
18029THY    CA541197   1.717   8.874   5.752  0.0605 -0.5574 -0.4137
18029THY    CM141198   1.664   8.769   5.849  0.0443  0.6494 -0.3253
18029THY    HM141199   1.641   8.800   5.952 -0.9532  0.2618  0.2641
18029THY    HM241200   1.733   8.684   5.846  0.8271  0.2111  0.3166
18029THY    HM341201   1.572   8.725   5.811  0.3072 -1.5798  0.9144
18029THY    CA641202   1.852   8.891   5.712  0.2660  0.7276  0.1728
18029THY    HA641203   1.932   8.832   5.756  0.6917  1.7464  1.4570
18030THY      O41204   8.998   9.026   4.882  0.2044 -0.8570 -0.1433
18030THY     HO41205   8.954   9.084   4.818 -2.0769  1.9083  1.4290
18030THY    CA141206   9.076   8.942   4.804  0.7820 -0.8517  0.7207
18030THY    CA241207   9.143   8.831   4.850  0.4334 -0.5063 -0.0967
18030THY    CP141208   9.141   8.797   5.001 -0.1030 -0.0390  0.2455
18030THY    HP141209   9.044   8.821   5.044  0.6935  2.2677 -0.4513
18030THY    CP241210   9.243   8.884   5.071 -0.4333 -0.3982 -0.1684
18030THY    HP241211   9.245   8.868   5.179 -0.0359 -0.3781  0.0250
18030THY    HP341212   9.234   8.990   5.043 -1.7692 -0.7198 -0.3519
18030THY    HP441213   9.344   8.852   5.045 -0.4043 -0.0200 -0.3832
18030THY    CP341214   9.170   8.648   5.026 -0.1097 -0.4368 -0.3753
18030THY    HP541215   9.270   8.616   4.994 -0.3421  0.6272 -2.3025
18030THY    HP641216   9.100   8.584   4.972 -0.8462  0.6243 -0.4921
18030THY    HP741217   9.168   8.629   5.134 -1.0889 -0.0932  1.5005
18030THY    CA341218   9.224   8.755   4.758  0.0684  0.7254 -0.2832
18030THY    HA341219   9.281   8.667   4.788  1.0565  0.6735  0.3220
18030THY    CA441220   9.231   8.796   4.621  0.3372 -0.3657 -0.3192
18030THY    HA441221   9.297   8.747   4.551  1.3154 -0.3781  0.9718
18030THY    CA541222   9.160   8.908   4.576  0.0951 -0.7547 -0.4256
18030THY    CM141223   9.173   8.942   4.438 -0.4475 -0.4989  0.4393
18030THY    HM141224   9.267   8.994   4.416  0.2617 -1.1936 -1.0568
18030THY    HM241225   9.089   9.002   4.400 -0.8555  0.4906  0.5050
18030THY    HM341226   9.166   8.847   4.383 -1.0314 -0.2139  0.3153
18030THY    CA641227   9.081   8.981   4.670  0.1541  0.5265 -0.1717
18030THY    HA641228   9.039   9.070   4.626  0.1560 -1.0349 -0.9036
18031THY      O41229   1.544   3.178   5.130 -0.0449  0.0726  0.8247
18031THY     HO41230   1.457   3.150   5.097  0.5444  1.4485 -3.2634
18031THY    CA141231   1.576   3.293   5.062 -0.7008 -0.0419 -0.0581
18031THY    CA241232   1.695   3.301   4.989  0.1724 -0.1690  1.3247
18031THY    CP141233   1.787   3.183   4.989 -0.1284 -0.0267 -1.2352
18031THY    HP141234   1.788   3.126   5.082  1.8930 -0.6017 -2.2655
18031THY    CP241235   1.939   3.227   4.982 -0.0229 -0.2100  0.0244
18031THY    HP241236   1.960   3.242   4.876 -1.9719 -0.2033  4.3605
18031THY    HP341237   1.997   3.138   5.010 -0.7286  2.5633  0.3245
18031THY    HP441238   1.967   3.305   5.053 -1.9017 -1.2124  1.6800
18031THY    CP341239   1.761   3.083   4.865  0.2529 -0.4028  0.0413
18031THY    HP541240   1.759   3.129   4.765 -1.3267 -1.2973 -1.8386
18031THY    HP641241   1.661   3.041   4.881  0.0920  0.6242  0.7707
18031THY    HP741242   1.834   3.002   4.867  0.3203 -0.0298  0.1116
18031THY    CA341243   1.704   3.414   4.899 -0.0171 -0.5357 -0.1799
18031THY    HA341244   1.784   3.408   4.826  0.6408 -0.0630  1.9199
18031THY    CA441245   1.619   3.525   4.905  0.2487  0.3557 -0.5731
18031THY    HA441246   1.627   3.615   4.843 -0.6643  0.9310 -0.0820
18031THY    CA541247   1.517   3.520   5.003 -0.1554  0.0669 -0.0571
18031THY    CM141248   1.420   3.634   5.017  0.5577  0.1188  0.0423
18031THY    HM141249   1.415   3.653   5.124  1.5039 -0.0192  1.1324
18031THY    HM241250   1.322   3.621   4.968  1.1847 -1.5676  1.3766
18031THY    HM341251   1.446   3.723   4.958 -0.0691  0.6500  0.5870
18031THY    CA641252   1.498   3.405   5.072  0.5804 -0.7790 -0.0136
18031THY    HA641253   1.408   3.405   5.134  1.3365  0.3754 -1.1310
18032THY      O41254   8.866   6.970   5.045  0.3176 -0.2610  0.1221
18032THY     HO41255   8.811   6.963   5.125 -0.2661 -0.6378  0.3283
18032THY    CA141256   8.820   6.866   4.969 -0.0901 -0.0927 -1.0185
18032THY    CA241257   8.888   6.828   4.847  0.1867 -0.2484  0.8624
18032THY    CP141258   9.008   6.902   4.791  0.3913 -0.1744 -0.0325
18032THY    HP141259   8.976   7.005   4.808  0.8834  0.7654 -0.0229
18032THY    CP241260   9.018   6.879   4.639 -0.1050  0.5662  0.0368
18032THY    HP241261   9.026   6.774   4.610 -2.2658 -0.7163  0.1749
18032THY    HP341262   9.100   6.948   4.615 -1.9973  1.3603  2.7569
18032THY    HP441263   8.931   6.905   4.578  1.2669 -1.5899 -0.1895
18032THY    CP341264   9.136   6.865   4.861 -0.7339 -0.5872 -0.1435
18032THY    HP541265   9.137   6.905   4.963  1.1602 -0.2023 -1.0231
18032THY    HP641266   9.219   6.911   4.806 -0.7327 -0.5627 -0.1165
18032THY    HP741267   9.157   6.757   4.861  0.2287  0.2554  0.0295
18032THY    CA341268   8.835   6.708   4.798 -0.5498  0.4944  0.0676
18032THY    HA341269   8.883   6.660   4.713  0.1868  1.4530 -0.9800
18032THY    CA441270   8.735   6.637   4.858 -0.6116 -0.2148  0.8096
18032THY    HA441271   8.700   6.542   4.817 -2.6824  3.9558 -0.4835
18032THY    CA541272   8.663   6.685   4.969 -0.7293  0.2368  0.0223
18032THY    CM141273   8.548   6.613   5.036 -0.2906 -0.0906  0.2940
18032THY    HM141274   8.463   6.675   5.065 -0.1106  0.6393  0.2109
18032THY    HM241275   8.593   6.572   5.127 -0.7397 -0.4444 -1.0614
18032THY    HM341276   8.509   6.532   4.972 -0.3145 -0.3347  0.4982
18032THY    CA641277   8.713   6.804   5.032 -0.6014 -0.3533 -1.3455
18032THY    HA641278   8.661   6.843   5.119 -1.1316 -1.9750  1.8792
18033THY      O41279   0.568   1.850   5.971  0.3522 -0.8065  0.1798
18033THY     HO41280   0.493   1.795   6.001 -0.9523 -1.4790  1.5133
18033THY    CA141281   0.625   1.787   5.869  0.2513  0.2411 -0.5664
18033THY    CA241282   0.750   1.827   5.828  0.2031  0.1402 -0.4340
18033THY    CP141283   0.837   1.932   5.908  0.6873  0.1659 -0.4078
18033THY    HP141284   0.774   1.985   5.980 -0.0074 -0.8992  0.2372
18033THY    CP241285   0.909   2.042   5.828  1.1001  0.4139  0.2002
18033THY    HP241286   0.859   2.080   5.738 -0.4612  0.9099 -0.6138
18033THY    HP341287   1.009   2.017   5.791  1.0789  0.5939 -0.1642
18033THY    HP441288   0.926   2.130   5.892 -1.0006  0.9438  0.2730
18033THY    CP341289   0.947   1.861   5.994 -0.0245  0.9644  0.0785
18033THY    HP541290   1.000   1.932   6.059  0.0595  2.6068 -1.4083
18033THY    HP641291   1.019   1.807   5.931  0.0019  1.9853 -1.1235
18033THY    HP741292   0.892   1.792   6.060 -0.8629  0.1116 -0.0789
18033THY    CA341293   0.791   1.794   5.692 -0.3004 -0.1058  0.0405
18033THY    HA341294   0.873   1.851   5.649 -0.3544 -0.5885 -0.2462
18033THY    CA441295   0.712   1.710   5.618  0.1352 -0.2013  0.7395
18033THY    HA441296   0.742   1.681   5.517 -1.2308 -0.6449  0.8117
18033THY    CA541297   0.595   1.664   5.667  1.2042 -0.2984  0.0658
18033THY    CM141298   0.507   1.566   5.584 -0.2773  0.5087 -0.0579
18033THY    HM141299   0.467   1.620   5.497  1.5304 -0.2975  0.0494
18033THY    HM241300   0.420   1.541   5.646  0.1605  1.6396  1.0911
18033THY    HM341301   0.561   1.483   5.537  1.1013  1.5729  0.1912
18033THY    CA641302   0.542   1.710   5.789  0.2753 -0.3569 -0.1925
18033THY    HA641303   0.445   1.680   5.827  1.3483  3.2550  0.4427
18034THY      O41304   1.294   6.318   2.915 -0.1024 -0.3666  1.0430
18034THY     HO41305   1.322   6.375   2.841 -2.7972 -1.1428  1.4918
18034THY    CA141306   1.165   6.340   2.932 -0.0231 -0.8098  0.0223
18034THY    CA241307   1.094   6.271   3.029  0.2553  0.2349 -0.3465
18034THY    CP141308   1.156   6.160   3.110  0.2070 -0.0425 -0.4693
18034THY    HP141309   1.262   6.149   3.082  0.0502 -1.9959  2.1821
18034THY    CP241310   1.085   6.020   3.075  0.3295 -0.7286  0.2574
18034THY    HP241311   1.000   6.005   3.143  1.7709  0.9527 -0.6802
18034THY    HP341312   1.167   5.948   3.088  0.6954  0.1305  0.8085
18034THY    HP441313   1.044   6.009   2.974 -0.7538 -0.2731 -0.0471
18034THY    CP341314   1.146   6.198   3.256  0.2429  0.8929  0.1545
18034THY    HP541315   1.245   6.179   3.298  0.7573 -0.6549 -0.7582
18034THY    HP641316   1.071   6.144   3.315 -0.3140  0.6632  0.6710
18034THY    HP741317   1.130   6.306   3.266 -0.7390 -1.4781  0.2937
18034THY    CA341318   0.959   6.309   3.057 -0.7383 -0.2273  0.0869
18034THY    HA341319   0.893   6.257   3.126 -0.0976  1.0330  0.9042
18034THY    CA441320   0.901   6.414   2.985  0.3924  0.3205  0.4565
18034THY    HA441321   0.806   6.461   3.006  1.1351  3.7770  0.6641
18034THY    CA541322   0.972   6.483   2.885 -0.5383 -0.8717  0.8150
18034THY    CM141323   0.925   6.604   2.807  0.9932 -0.4083  0.3218
18034THY    HM141324   0.981   6.695   2.831 -0.5584  1.1535  0.9173
18034THY    HM241325   0.818   6.618   2.826  1.2031  0.2629  1.1041
18034THY    HM341326   0.936   6.586   2.699  1.5567  0.0324 -2.3769
18034THY    CA641327   1.105   6.442   2.858  0.1878  0.0820 -0.5944
18034THY    HA641328   1.166   6.503   2.791  1.0891  2.7032  1.5967
18035THY      O41329   2.707   8.244   6.475 -0.8666  0.0409  0.2610
18035THY     HO41330   2.738   8.278   6.561  0.2252  0.1789 -0.9898
18035THY    CA141331   2.763   8.327   6.384  1.2837 -0.3864 -0.0832
18035THY    CA241332   2.746   8.307   6.250  0.2670  0.2390  0.3160
18035THY    CP141333   2.654   8.204   6.186  0.3975 -0.0615  0.0042
18035THY    HP141334   2.574   8.178   6.257 -1.4881 -1.4734  1.6603
18035THY    CP241335   2.732   8.076   6.148  0.9394  0.4164 -0.4720
18035THY    HP241336   2.661   7.999   6.115 -0.2278  1.1353  0.2750
18035THY    HP341337   2.774   8.026   6.236  1.2023 -0.4626 -1.8776
18035THY    HP441338   2.802   8.084   6.064 -2.2083 -2.5587 -1.5811
18035THY    CP341339   2.581   8.248   6.073 -0.4131 -0.2922  0.3278
18035THY    HP541340   2.549   8.347   6.108  2.9356 -0.5445  1.6229
18035THY    HP641341   2.493   8.187   6.050 -0.8454  0.1066  0.7899
18035THY    HP741342   2.641   8.265   5.983  2.1818  0.7841 -2.3259
18035THY    CA341343   2.814   8.400   6.164  0.0094  0.3465  0.1654
18035THY    HA341344   2.790   8.407   6.058 -1.4251  0.3835 -2.8083
18035THY    CA441345   2.905   8.498   6.213 -0.2786 -0.3061 -0.5851
18035THY    HA441346   2.963   8.566   6.151  0.7595  2.8615  1.6328
18035THY    CA541347   2.909   8.515   6.350  1.4608 -0.3086  0.5269
18035THY    CM141348   3.004   8.619   6.401 -0.4488  0.1838  0.3411
18035THY    HM141349   2.955   8.650   6.494 -1.2877 -0.0460 -0.2390
18035THY    HM241350   2.995   8.712   6.345  1.3337 -1.7881 -0.5909
18035THY    HM341351   3.109   8.587   6.393 -0.1053 -0.2367  1.5473
18035THY    CA641352   2.837   8.432   6.435  0.0701 -0.3422  0.0722
18035THY    HA641353   2.843   8.462   6.539 -2.0614 -0.3329  0.6584
18036THY      O41354   3.951   7.794   3.906  0.4310  0.3537  0.3594
18036THY     HO41355   3.889   7.867   3.926  1.7399  1.3910  1.2307
18036THY    CA141356   4.076   7.850   3.885 -0.0749  0.1328 -0.0830
18036THY    CA241357   4.191   7.766   3.859 -0.2044  0.0149 -0.0095
18036THY    CP141358   4.182   7.610   3.864  0.4223  0.1457  0.3724
18036THY    HP141359   4.090   7.584   3.917 -0.1297 -1.3070 -0.7768
18036THY    CP241360   4.299   7.538   3.947  0.1130 -0.3351 -0.1432
18036THY    HP241361   4.282   7.433   3.972 -1.9286 -0.5307  0.1017
18036THY    HP341362   4.331   7.602   4.030  3.0506 -1.5360  0.1615
18036THY    HP441363   4.393   7.542   3.890  0.8288  0.8770  2.5704
18036THY    CP341364   4.163   7.542   3.726 -0.0650  0.2003 -0.0496
18036THY    HP541365   4.136   7.437   3.741  0.1907  1.2280  0.0219
18036THY    HP641366   4.256   7.547   3.668 -0.7173 -0.7367  2.6186
18036THY    HP741367   4.081   7.589   3.671 -1.5222  0.5449 -2.0608
18036THY    CA341368   4.312   7.833   3.841 -0.6800  0.2871  0.1192
18036THY    HA341369   4.401   7.771   3.846 -0.6014  1.0170  0.2826
18036THY    CA441370   4.318   7.973   3.847 -0.0845  0.5310  0.2718
18036THY    HA441371   4.409   8.024   3.818 -1.9988 -0.9971  3.0946
18036THY    CA541372   4.203   8.049   3.865 -0.0995 -0.0404 -0.9751
18036THY    CM141373   4.210   8.198   3.852 -1.2842 -1.1387  0.6813
18036THY    HM141374   4.223   8.251   3.947 -1.2076 -1.5606  1.4292
18036THY    HM241375   4.135   8.247   3.789 -1.6624 -1.2864 -0.0795
18036THY    HM341376   4.306   8.227   3.808 -1.6206 -2.7767 -0.5536
18036THY    CA641377   4.085   7.989   3.890 -0.6288 -0.0760 -0.2699
18036THY    HA641378   3.999   8.053   3.909 -0.5443 -0.0400 -0.1695
18037THY      O41379   4.046   1.349   2.111  0.2052  0.0292  0.2962
18037THY     HO41380   4.020   1.268   2.159 -2.1848 -0.8028  0.4906
18037THY    CA141381   4.035   1.308   1.980 -0.2592 -0.9936 -0.1670
18037THY    CA241382   4.087   1.377   1.874 -0.5766  0.6216  0.3676
18037THY    CP141383   4.165   1.506   1.878  0.4753  0.0678 -0.1835
18037THY    HP141384   4.184   1.527   1.984 -0.0066  0.0431  0.4369
18037THY    CP241385   4.084   1.618   1.825  0.6414  0.1119 -0.3021
18037THY    HP241386   4.081   1.613   1.715 -1.8438  0.1499 -0.9705
18037THY    HP341387   4.121   1.715   1.859 -1.9249  2.0673  0.1170
18037THY    HP441388   3.981   1.616   1.863 -0.1543 -1.9263 -0.8422
18037THY    CP341389   4.290   1.503   1.800 -0.0381  0.5172 -0.0487
18037THY    HP541390   4.269   1.488   1.693 -4.0295  1.1232  0.1373
18037THY    HP641391   4.357   1.429   1.845 -0.9036  1.9007 -0.0217
18037THY    HP741392   4.340   1.598   1.821  0.6067  0.6537 -0.4176
18037THY    CA341393   4.049   1.328   1.751  0.2898  1.1024 -0.0201
18037THY    HA341394   4.072   1.383   1.661  0.6347  0.5358 -1.0588
18037THY    CA441395   3.980   1.205   1.738 -0.2873 -0.3397 -0.3985
18037THY    HA441396   3.961   1.168   1.638 -0.4569 -0.8680  1.0750
18037THY    CA541397   3.934   1.139   1.851  0.0782  0.0155  0.0939
18037THY    CM141398   3.886   1.002   1.825  0.2784 -0.1153  0.0493
18037THY    HM141399   3.776   1.009   1.821  0.2030 -2.5790 -1.2469
18037THY    HM241400   3.916   0.928   1.900 -2.8895  1.4357  0.1561
18037THY    HM341401   3.918   0.975   1.724 -1.3194 -0.5399 -0.4042
18037THY    CA641402   3.961   1.190   1.976 -0.1773  0.6223  0.0796
18037THY    HA641403   3.933   1.134   2.065 -1.5916  0.4514  0.4895
18038THY      O41404   6.149   7.623   2.477 -0.1269  0.6587 -0.1879
18038THY     HO41405   6.218   7.559   2.453  0.0543  1.7470 -0.4238
18038THY    CA141406   6.085   7.575   2.591 -0.5479  0.0584  0.1256
18038THY    CA241407   5.957   7.624   2.634 -0.0207 -0.4771  0.1158
18038THY    CP141408   5.882   7.727   2.543 -0.3055  0.5201 -0.1854
18038THY    HP141409   5.948   7.763   2.463 -0.8237  0.4148  0.5627
18038THY    CP241410   5.833   7.849   2.629  0.5459  0.7055 -0.1312
18038THY    HP241411   5.894   7.880   2.714 -0.7030  0.8422  2.1606
18038THY    HP341412   5.736   7.823   2.671 -0.4104 -0.3860  1.5007
18038THY    HP441413   5.810   7.930   2.559  2.0603  0.0415 -0.2319
18038THY    CP341414   5.769   7.651   2.473  0.2864 -0.1946  0.0114
18038THY    HP541415   5.695   7.611   2.543  0.1561 -0.1489  0.3326
18038THY    HP641416   5.818   7.568   2.420  0.8930 -0.8220  0.7508
18038THY    HP741417   5.714   7.710   2.399 -0.4994 -0.8714 -1.5118
18038THY    CA341418   5.908   7.582   2.762  0.0117 -0.3245 -0.0146
18038THY    HA341419   5.812   7.622   2.795  0.5207  1.2788 -0.0307
18038THY    CA441420   5.975   7.488   2.841 -0.3472 -0.1640 -0.1112
18038THY    HA441421   5.938   7.455   2.938  2.8932  0.4342 -2.4898
18038THY    CA541422   6.097   7.439   2.790  0.1287 -0.0483  0.6640
18038THY    CM141423   6.178   7.348   2.868  0.0424  0.8389  0.2523
18038THY    HM141424   6.150   7.332   2.973 -1.8246  0.1676 -1.2989
18038THY    HM241425   6.282   7.381   2.870 -0.3205  1.8917  1.4123
18038THY    HM341426   6.174   7.257   2.807 -1.6295 -2.5196  2.4107
18038THY    CA641427   6.148   7.474   2.668  0.0903  0.4628  0.3118
18038THY    HA641428   6.242   7.439   2.626  1.0780  0.8738  2.3144
18039THY      O41429   3.918   0.826   6.990  0.1316 -0.4067 -0.2249
18039THY     HO41430   3.860   0.880   6.935 -1.5142  2.8403  1.6017
18039THY    CA141431   3.929   0.888   7.114  0.4987 -0.4549 -0.7448
18039THY    CA241432   4.032   0.841   7.206 -0.2183 -0.2717  0.2114
18039THY    CP141433   4.140   0.748   7.149 -0.8230  0.2480 -0.1617
18039THY    HP141434   4.160   0.768   7.043 -0.1835  0.1731 -1.1629
18039THY    CP241435   4.085   0.604   7.166  0.1152 -0.6964  0.1919
18039THY    HP241436   4.039   0.570   7.259  2.4642  0.1432 -0.9080
18039THY    HP341437   4.166   0.531   7.155 -1.4444 -0.6556 -1.6339
18039THY    HP441438   4.022   0.592   7.077  0.3452 -1.3468  3.0290
18039THY    CP341439   4.282   0.756   7.210  0.3027  0.0728 -0.5207
18039THY    HP541440   4.343   0.683   7.155 -1.0551  0.3473 -1.9173
18039THY    HP641441   4.289   0.728   7.316 -0.6178  0.0488 -0.8921
18039THY    HP741442   4.327   0.855   7.208 -1.1599 -2.2864  0.1937
18039THY    CA341443   4.044   0.909   7.325 -0.0473  1.0268  0.4827
18039THY    HA341444   4.121   0.874   7.394  1.1075  0.5393  1.9775
18039THY    CA441445   3.954   1.011   7.350 -0.5646 -0.3527  0.0450
18039THY    HA441446   3.961   1.066   7.444 -1.1592 -0.6537  0.6487
18039THY    CA541447   3.840   1.040   7.274 -0.6161 -0.6962  0.2175
18039THY    CM141448   3.724   1.125   7.334  0.5819  0.0216 -0.9716
18039THY    HM141449   3.680   1.079   7.423  0.5203  0.7855  0.5014
18039THY    HM241450   3.646   1.147   7.260  0.6339  0.7252  2.0580
18039THY    HM341451   3.753   1.223   7.373 -0.8759  0.5141 -0.7198
18039THY    CA641452   3.830   0.980   7.156  0.4907  0.0910 -0.2303
18039THY    HA641453   3.747   1.009   7.093 -0.0497  1.5740  1.5605
18040THY      O41454   5.069   8.316   3.823  0.5556  0.0834 -0.0005
18040THY     HO41455   5.012   8.266   3.883 -0.6254  0.8478  2.1218
18040THY    CA141456   5.072   8.245   3.709 -0.8284  0.8152  0.7620
18040THY    CA241457   5.170   8.276   3.608 -0.3074  0.1406  0.1718
18040THY    CP141458   5.277   8.384   3.639 -0.6226 -1.1639 -0.8783
18040THY    HP141459   5.247   8.447   3.723 -0.5944 -0.7507 -1.4050
18040THY    CP241460   5.304   8.481   3.523  0.2420 -0.3538 -0.4024
18040THY    HP241461   5.214   8.542   3.513  0.1240 -1.9000 -0.7914
18040THY    HP341462   5.331   8.433   3.429  2.5507 -0.6998  1.3778
18040THY    HP441463   5.379   8.556   3.554 -0.5170  0.7067 -0.0549
18040THY    CP341464   5.404   8.308   3.667 -0.9016  0.2075 -0.2962
18040THY    HP541465   5.491   8.368   3.697 -0.5680  0.7555 -1.0380
18040THY    HP641466   5.435   8.255   3.576 -1.1145  0.0076 -0.0769
18040THY    HP741467   5.381   8.231   3.741  0.4711  0.3417 -0.6103
18040THY    CA341468   5.187   8.188   3.495  0.1068 -0.0619  0.5790
18040THY    HA341469   5.268   8.193   3.423  1.6992  1.6540  0.6759
18040THY    CA441470   5.096   8.079   3.495 -0.3079 -0.6048 -0.6170
18040THY    HA441471   5.108   8.012   3.411 -0.0975 -1.8192  0.8980
18040THY    CA541472   4.997   8.053   3.589 -0.4897 -0.4145 -0.3823
18040THY    CM141473   4.908   7.935   3.588 -0.3136 -0.2826  0.2495
18040THY    HM141474   4.952   7.855   3.648  0.3263 -1.2701 -0.1583
18040THY    HM241475   4.878   7.910   3.485 -0.2695 -1.0007  2.8705
18040THY    HM341476   4.814   7.964   3.636  0.7503  2.6313 -0.7321
18040THY    CA641477   4.982   8.142   3.697  0.4868 -0.4844 -0.3045
18040THY    HA641478   4.913   8.112   3.776  1.4270 -0.0505 -1.4123
18041THY      O41479   3.624   8.541   2.397 -0.4063  0.4361 -0.0067
18041THY     HO41480   3.552   8.537   2.332 -0.1370  0.1677 -0.5509
18041THY    CA141481   3.670   8.661   2.380 -0.5069 -0.4786 -0.0788
18041THY    CA241482   3.809   8.687   2.359  0.1664  0.6026 -0.7008
18041THY    CP141483   3.906   8.566   2.341  0.0432 -0.3041  0.3524
18041THY    HP141484   3.898   8.500   2.429  1.9906 -0.4868 -0.1975
18041THY    CP241485   4.054   8.618   2.323 -0.1285  0.5819 -0.0196
18041THY    HP241486   4.097   8.670   2.410 -0.4390  0.6000  0.2066
18041THY    HP341487   4.071   8.669   2.228 -0.5106  1.0304  0.9547
18041THY    HP441488   4.102   8.519   2.314 -1.7123 -3.2334 -0.6189
18041THY    CP341489   3.882   8.490   2.210 -0.0389 -0.0167 -0.3335
18041THY    HP541490   3.793   8.428   2.227 -0.5236  0.6273  0.5276
18041THY    HP641491   3.966   8.427   2.176  1.3756 -0.6386  1.7978
18041THY    HP741492   3.863   8.557   2.126  4.8186 -1.6292 -0.5558
18041THY    CA341493   3.850   8.823   2.356  0.3521  0.4219  0.1777
18041THY    HA341494   3.952   8.853   2.334  0.4561  0.4411 -0.1664
18041THY    CA441495   3.752   8.922   2.363 -0.4518  0.5920 -0.4565
18041THY    HA441496   3.787   9.024   2.372 -0.3156 -1.0038 -0.3315
18041THY    CA541497   3.616   8.893   2.381 -0.1207  0.0836  0.7723
18041THY    CM141498   3.514   8.997   2.350 -0.0699  0.4220 -0.4368
18041THY    HM141499   3.542   9.057   2.262 -0.6346 -0.3313 -1.2415
18041THY    HM241500   3.492   9.070   2.428 -2.5072 -0.2085 -0.4096
18041THY    HM341501   3.416   8.950   2.330  0.4142  0.9729 -1.7258
18041THY    CA641502   3.578   8.763   2.391 -0.0674 -0.2235 -0.3522
18041THY    HA641503   3.471   8.746   2.400  0.1595  0.2501 -1.5890
18042THY      O41504   4.554   8.191   4.878 -0.3951  0.2659  0.0033
18042THY     HO41505   4.475   8.230   4.919 -2.2777 -0.9971 -2.2678
18042THY    CA141506   4.513   8.067   4.845  0.7526  0.2422 -0.4169
18042THY    CA241507   4.532   8.023   4.712 -0.1110 -0.0731 -0.1711
18042THY    CP141508   4.595   8.114   4.611  0.1672 -0.4187 -0.0738
18042THY    HP141509   4.634   8.207   4.656  1.7700  2.3548 -1.9450
18042THY    CP241510   4.502   8.150   4.503  0.5124 -0.2253 -0.4819
18042THY    HP241511   4.521   8.240   4.444 -0.6873 -0.2347 -0.2210
18042THY    HP341512   4.409   8.199   4.534  0.0660 -3.3868  0.8932
18042THY    HP441513   4.481   8.070   4.431 -0.5907 -1.8585  1.2084
18042THY    CP341514   4.731   8.060   4.559  0.3012 -0.6319  0.1797
18042THY    HP541515   4.714   7.978   4.488 -0.9442 -0.1824  0.0294
18042THY    HP641516   4.793   8.033   4.646  2.3821 -1.7179  1.1655
18042THY    HP741517   4.789   8.136   4.505 -0.3297 -2.8845 -0.8587
18042THY    CA341518   4.482   7.898   4.672 -1.0002  0.3598  0.5490
18042THY    HA341519   4.485   7.865   4.569  2.2703  0.5951 -0.2689
18042THY    CA441520   4.424   7.819   4.772  0.3033 -0.0834 -0.3099
18042THY    HA441521   4.381   7.724   4.740 -1.8030  2.3810 -0.2803
18042THY    CA541522   4.410   7.864   4.895  0.0597 -0.3691 -0.1005
18042THY    CM141523   4.338   7.784   4.992  0.5748 -0.4084 -0.0482
18042THY    HM141524   4.379   7.802   5.092  0.9123 -0.2698 -1.5392
18042THY    HM241525   4.361   7.678   4.978 -0.1203  1.3058 -0.4647
18042THY    HM341526   4.231   7.806   5.002  0.5184 -0.9736 -0.0556
18042THY    CA641527   4.450   7.992   4.935  0.4671 -0.3018  0.5823
18042THY    HA641528   4.435   8.031   5.036 -0.1162 -0.3887  0.5931
18043THY      O41529   7.545   5.731   2.919 -0.0772 -0.0118 -0.2256
18043THY     HO41530   7.509   5.647   2.951 -0.1338 -0.0708 -0.2240
18043THY    CA141531   7.638   5.761   3.009  0.3214 -0.7414  0.4551
18043THY    CA241532   7.752   5.839   2.972 -0.0784  0.6937 -0.0565
18043THY    CP141533   7.760   5.899   2.830  0.3830  0.8709 -0.3056
18043THY    HP141534   7.672   5.880   2.768 -0.6460  2.4707 -0.9456
18043THY    CP241535   7.880   5.862   2.756  0.4962 -0.2217  0.5812
18043THY    HP241536   7.968   5.923   2.781  1.0417  0.1440 -0.3253
18043THY    HP341537   7.862   5.842   2.650  0.3759 -0.1374  0.2409
18043THY    HP441538   7.903   5.760   2.789 -0.4769  0.0079  0.4293
18043THY    CP341539   7.759   6.059   2.822  0.6811  0.6561 -0.0772
18043THY    HP541540   7.759   6.093   2.717 -1.0765  0.9623  0.9424
18043THY    HP641541   7.839   6.110   2.877  0.6628  1.6606 -1.0993
18043THY    HP741542   7.659   6.093   2.848 -0.5568 -0.5362 -2.5030
18043THY    CA341543   7.859   5.857   3.064  0.2780  0.3907  0.2150
18043THY    HA341544   7.949   5.914   3.047  0.9691  0.0919 -0.9410
18043THY    CA441545   7.842   5.793   3.193  0.0139 -0.1130 -0.4931
18043THY    HA441546   7.923   5.803   3.265 -0.5260  0.7846 -2.2346
18043THY    CA541547   7.729   5.721   3.227 -0.4264  1.1026  0.1268
18043THY    CM141548   7.733   5.643   3.357  0.2507  0.2653 -0.9771
18043THY    HM141549   7.786   5.698   3.436 -1.7131  1.3534 -0.5581
18043THY    HM241550   7.785   5.549   3.339  1.0051  1.4098 -0.8055
18043THY    HM341551   7.636   5.618   3.402  0.8396  1.5043 -1.1392
18043THY    CA641552   7.627   5.699   3.133  0.1017 -0.3618  0.0700
18043THY    HA641553   7.541   5.643   3.168 -1.3022 -1.7845  1.2509
18044THY      O41554   1.787   5.753   6.416 -0.3289 -0.0774 -0.0906
18044THY     HO41555   1.770   5.666   6.456  1.8625  0.9842 -0.1047
18044THY    CA141556   1.918   5.771   6.409 -0.0878  0.9005  0.6126
18044THY    CA241557   1.983   5.819   6.298 -0.2833  0.7291 -0.0678
18044THY    CP141558   1.909   5.861   6.174 -0.1349  0.0998  0.4473
18044THY    HP141559   1.804   5.888   6.192 -0.8250 -2.6484 -0.0829
18044THY    CP241560   1.897   5.746   6.076 -0.1943 -0.0831 -0.0416
18044THY    HP241561   1.822   5.672   6.108 -1.7108 -1.3645  0.8849
18044THY    HP341562   1.993   5.693   6.073  0.3947 -2.5556  1.0315
18044THY    HP441563   1.870   5.788   5.978 -0.4439  0.6338  1.5209
18044THY    CP341564   1.969   5.987   6.097  0.0663 -0.0696 -0.5351
18044THY    HP541565   2.038   5.958   6.017 -0.4664 -1.1738  1.0752
18044THY    HP641566   2.024   6.041   6.175  0.8265 -0.0076 -1.3824
18044THY    HP741567   1.887   6.051   6.062  0.9626 -2.2324 -0.4871
18044THY    CA341568   2.125   5.825   6.301 -0.5180  0.1668  0.6005
18044THY    HA341569   2.182   5.854   6.213 -1.2631 -0.4132  0.3445
18044THY    CA441570   2.196   5.792   6.418 -0.5765  0.3085  0.6843
18044THY    HA441571   2.304   5.789   6.409 -0.7021 -1.1178 -0.7453
18044THY    CA541572   2.124   5.742   6.526  0.2887  0.1533 -0.4804
18044THY    CM141573   2.201   5.712   6.657 -0.6000  0.1390 -0.5420
18044THY    HM141574   2.299   5.760   6.669 -1.4188 -0.9575  1.5561
18044THY    HM241575   2.194   5.608   6.690 -0.2525 -1.0537 -0.9630
18044THY    HM341576   2.148   5.771   6.732 -1.7282  0.2817 -1.6888
18044THY    CA641577   1.985   5.726   6.524 -0.2182 -0.3058  0.5069
18044THY    HA641578   1.926   5.689   6.607 -1.1064 -1.4576 -0.7926
18045THY      O41579   0.074   1.721   4.946  0.1931 -0.3280 -0.4483
18045THY     HO41580   0.076   1.785   4.872  0.2714  0.3281  0.3191
18045THY    CA141581   0.136   1.612   4.909 -0.4033 -0.3386  0.0812
18045THY    CA241582   0.192   1.517   5.001  0.6530 -0.0531 -0.2714
18045THY    CP141583   0.162   1.537   5.158  0.1570 -0.5770  0.0439
18045THY    HP141584   0.062   1.580   5.167  0.6814 -1.1202  1.4393
18045THY    CP241585   0.257   1.640   5.228 -0.0062  0.6559  0.7357
18045THY    HP241586   0.360   1.605   5.219  0.6140  0.4900  2.4942
18045THY    HP341587   0.217   1.646   5.330 -0.5139  1.2061 -5.7170
18045THY    HP441588   0.257   1.732   5.168  0.6283  1.2862  1.1530
18045THY    CP341589   0.170   1.397   5.233  0.6202 -0.2775  0.0461
18045THY    HP541590   0.274   1.382   5.265  0.5279  1.3409  2.3594
18045THY    HP641591   0.139   1.318   5.163 -0.5686 -0.2019  0.4232
18045THY    HP741592   0.113   1.393   5.327  3.4024  1.6354  1.5396
18045THY    CA341593   0.270   1.409   4.949 -0.6160  0.5714 -0.0509
18045THY    HA341594   0.315   1.333   5.013 -0.3898  0.0069 -0.4000
18045THY    CA441595   0.300   1.411   4.813 -0.1833  0.0050 -0.3048
18045THY    HA441596   0.353   1.328   4.769 -1.8154  0.1167 -1.4719
18045THY    CA541597   0.234   1.504   4.726 -0.0800  0.1008  0.8432
18045THY    CM141598   0.275   1.497   4.580 -0.0967  0.4675 -0.8127
18045THY    HM141599   0.368   1.556   4.578 -1.2867  3.3574  1.4460
18045THY    HM241600   0.200   1.549   4.519  0.6666  0.3746  0.2067
18045THY    HM341601   0.289   1.393   4.547 -0.0055  2.3760 -1.4466
18045THY    CA641602   0.163   1.606   4.776  0.2793 -0.9463 -0.4527
18045THY    HA641603   0.135   1.686   4.708 -3.4702 -0.5790 -1.2701
18046THY      O41604   4.253   2.171   4.686  0.8032  0.2881  0.1927
18046THY     HO41605   4.350   2.168   4.692  1.0957 -2.9126  0.0907
18046THY    CA141606   4.223   2.113   4.576  0.5680  0.7295  0.1348
18046THY    CA241607   4.094   2.127   4.520  0.6327 -0.7899  0.1370
18046THY    CP141608   3.989   2.218   4.588  0.1861  0.5503  0.0203
18046THY    HP141609   4.020   2.236   4.692  0.2043  0.3145  1.4752
18046THY    CP241610   3.852   2.157   4.597 -0.1212  0.4046 -0.3028
18046THY    HP241611   3.789   2.152   4.507 -0.0864  0.3545  0.1162
18046THY    HP341612   3.787   2.203   4.673 -1.2892  0.1950 -1.5551
18046THY    HP441613   3.865   2.060   4.646 -0.0939  1.4337  0.1953
18046THY    CP341614   3.974   2.358   4.515 -0.7187  0.0003  0.6830
18046THY    HP541615   3.913   2.419   4.583 -0.4179  0.1191  0.8514
18046THY    HP641616   3.913   2.356   4.424 -0.9375 -0.0467  3.9891
18046THY    HP741617   4.072   2.407   4.509 -0.1169 -1.3220 -0.6235
18046THY    CA341618   4.061   2.067   4.390 -0.3200 -0.2579 -1.2198
18046THY    HA341619   3.964   2.082   4.344 -1.6616  2.3536 -1.3047
18046THY    CA441620   4.164   2.000   4.324  0.4338  0.0461 -0.3356
18046THY    HA441621   4.149   1.960   4.225  1.2268  0.0240 -0.5916
18046THY    CA541622   4.286   1.979   4.389  0.0129 -0.1072 -0.0852
18046THY    CM141623   4.383   1.898   4.309  1.0954 -0.1140  0.4970
18046THY    HM141624   4.469   1.854   4.362  0.1428 -0.7268 -2.3152
18046THY    HM241625   4.418   1.970   4.234 -1.1414  0.8007  2.6526
18046THY    HM341626   4.336   1.811   4.263  2.7808  2.4342 -1.9490
18046THY    CA641627   4.324   2.038   4.510 -0.5735 -0.6418 -0.9111
18046THY    HA641628   4.427   2.023   4.543 -1.1544  0.6353 -2.3783
18047THY      O41629   2.801   2.767   5.769 -0.6055  0.1126  0.0132
18047THY     HO41630   2.888   2.789   5.806 -0.0818 -1.3836  0.5308
18047THY    CA141631   2.823   2.736   5.637 -1.0143  0.3984  0.2171
18047THY    CA241632   2.732   2.662   5.564  0.5632  0.6237  0.8747
18047THY    CP141633   2.594   2.617   5.620  0.0794 -0.5840 -0.6675
18047THY    HP141634   2.587   2.630   5.728  1.8065 -0.6978  2.1763
18047THY    CP241635   2.582   2.469   5.593  0.1082 -0.5645 -0.1593
18047THY    HP241636   2.584   2.444   5.487 -2.4482 -0.5267 -0.8201
18047THY    HP341637   2.496   2.428   5.647  0.6694 -0.1073 -0.7476
18047THY    HP441638   2.669   2.427   5.645 -1.3621  1.5938 -0.7031
18047THY    CP341639   2.468   2.682   5.553  0.0791 -0.1749  1.0616
18047THY    HP541640   2.450   2.631   5.458  0.6085 -0.6453  1.7391
18047THY    HP641641   2.486   2.781   5.510  0.2835 -0.3834  0.9372
18047THY    HP741642   2.380   2.689   5.618 -0.6029 -0.9811  0.2036
18047THY    CA341643   2.755   2.642   5.422  0.7392 -0.5096  0.6168
18047THY    HA341644   2.674   2.603   5.361  0.3555  0.7131 -0.5590
18047THY    CA441645   2.878   2.689   5.367 -0.8976 -0.4760  0.2842
18047THY    HA441646   2.898   2.678   5.261  1.3117  0.0726 -1.9426
18047THY    CA541647   2.967   2.762   5.447 -0.2714  0.1027  0.4059
18047THY    CM141648   3.102   2.804   5.395 -0.4361 -1.1814  0.2189
18047THY    HM141649   3.107   2.798   5.286  0.2003 -1.0711 -2.0467
18047THY    HM241650   3.169   2.726   5.433 -0.7648  1.7477  1.2559
18047THY    HM341651   3.134   2.904   5.427  0.8637  1.2403 -0.8826
18047THY    CA641652   2.944   2.781   5.583  0.2273  0.2643  0.1542
18047THY    HA641653   3.021   2.825   5.647  0.1184  2.1101 -2.1669
18048THY      O41654   7.248   9.487   3.182  0.2395  0.0315 -0.1731
18048THY     HO41655   7.298   9.483   3.265  0.3968 -0.0846 -0.8698
18048THY    CA141656   7.170   9.377   3.193 -1.1028 -0.1679 -0.3871
18048THY    CA241657   7.071   9.344   3.092 -0.2019 -0.4957  0.0321
18048THY    CP141658   7.060   9.422   2.968  0.5982 -0.7915  0.2361
18048THY    HP141659   7.129   9.507   2.972 -0.1434  0.1803  0.8145
18048THY    CP241660   6.914   9.491   2.962 -0.4444  0.3126  0.2703
18048THY    HP241661   6.900   9.553   3.051  0.8140 -0.0665  1.1214
18048THY    HP341662   6.839   9.411   2.970  0.1010  1.2305 -0.1674
18048THY    HP441663   6.897   9.548   2.870 -2.7344 -0.2268 -1.1537
18048THY    CP341664   7.097   9.340   2.838  0.3367 -0.0294 -0.3071
18048THY    HP541665   7.105   9.408   2.753 -0.6423  0.2076  0.1193
18048THY    HP641666   7.017   9.267   2.823  2.1349 -0.0829 -2.3509
18048THY    HP741667   7.190   9.284   2.850 -0.1844  0.7083 -1.0318
18048THY    CA341668   7.011   9.220   3.107 -0.3236  0.9248  0.1877
18048THY    HA341669   6.942   9.187   3.030 -0.6653  0.8679  0.9930
18048THY    CA441670   7.029   9.148   3.229  0.3313  0.1403 -0.6989
18048THY    HA441671   6.971   9.058   3.248 -0.1989 -0.4889 -0.5008
18048THY    CA541672   7.111   9.195   3.328 -0.4863  0.2771  0.2435
18048THY    CM141673   7.150   9.099   3.440 -0.1774  0.4942 -0.1723
18048THY    HM141674   7.222   9.143   3.510  2.1307 -1.0113 -1.3881
18048THY    HM241675   7.197   9.008   3.401 -0.0705  1.6253 -0.6193
18048THY    HM341676   7.063   9.081   3.504 -0.7541 -0.5512 -1.2582
18048THY    CA641677   7.187   9.308   3.310 -0.1442  0.4770  0.1490
18048THY    HA641678   7.268   9.330   3.379  1.5304 -1.3832  0.1093
18049THY      O41679   2.655   0.796   2.747  0.2440 -0.0010  0.2790
18049THY     HO41680   2.649   0.890   2.770 -1.9474 -1.2632  0.4937
18049THY    CA141681   2.541   0.752   2.691 -0.3002 -0.2811  0.3084
18049THY    CA241682   2.533   0.626   2.631  0.0434 -0.3508  0.1763
18049THY    CP141683   2.636   0.518   2.643  0.0574  0.1800 -0.4663
18049THY    HP141684   2.727   0.548   2.697  1.7496 -2.8919  0.3925
18049THY    CP241685   2.703   0.471   2.514  0.1549 -0.1813 -0.7343
18049THY    HP241686   2.749   0.558   2.467 -0.2868  0.3229 -0.2218
18049THY    HP341687   2.624   0.425   2.453 -0.7083 -0.1940  0.7000
18049THY    HP441688   2.787   0.403   2.529  1.8138 -0.7503  1.1239
18049THY    CP341689   2.579   0.393   2.711  0.7879  0.4402  0.3836
18049THY    HP541690   2.512   0.416   2.795  0.2924  1.2235 -3.2660
18049THY    HP641691   2.658   0.332   2.757  1.4841 -1.4941 -0.2462
18049THY    HP741692   2.528   0.338   2.631  1.7792 -1.4726  2.1172
18049THY    CA341693   2.417   0.604   2.558  0.4529 -0.5813 -0.5362
18049THY    HA341694   2.406   0.506   2.511  0.4217 -1.5967 -0.0562
18049THY    CA441695   2.311   0.689   2.549 -0.0399 -0.0040  0.5323
18049THY    HA441696   2.231   0.682   2.475 -0.6642  0.5955  1.1723
18049THY    CA541697   2.324   0.820   2.615  0.4216 -0.2418  0.6584
18049THY    CM141698   2.214   0.926   2.605 -0.0412  0.6384 -0.6673
18049THY    HM141699   2.208   1.000   2.686 -4.1320  0.9832 -1.1513
18049THY    HM241700   2.121   0.869   2.604  0.1247  1.8359 -0.9881
18049THY    HM341701   2.233   0.978   2.510  0.5478  1.7420  1.2337
18049THY    CA641702   2.440   0.848   2.685 -0.3590  0.7924 -0.1101
18049THY    HA641703   2.456   0.948   2.723 -1.5876 -1.3937  0.9865
18050THY      O41704   3.009   1.977   7.654 -0.6790 -0.5399 -0.1036
18050THY     HO41705   2.949   1.954   7.727  0.8214  0.3896 -1.1496
18050THY    CA141706   3.094   1.884   7.640 -0.3976  0.7449  0.3039
18050THY    CA241707   3.217   1.900   7.568  0.1414 -0.1195  0.0439
18050THY    CP141708   3.273   2.031   7.513 -0.1022  0.0955 -0.1170
18050THY    HP141709   3.195   2.107   7.523 -0.4094 -0.1480 -0.3977
18050THY    CP241710   3.307   2.020   7.366 -0.2110  0.0098 -0.4077
18050THY    HP241711   3.407   1.980   7.342  1.1037  1.3961  1.8608
18050THY    HP341712   3.311   2.124   7.332  0.6549 -2.1282 -1.0821
18050THY    HP441713   3.222   1.973   7.316 -0.3140 -0.3361  0.1426
18050THY    CP341714   3.390   2.081   7.597 -0.6019  0.2447  0.8240
18050THY    HP541715   3.466   2.003   7.606 -1.1513 -0.0308  0.2487
18050THY    HP641716   3.348   2.086   7.698  1.6507  1.2558  0.4238
18050THY    HP741717   3.427   2.176   7.556  1.5409 -1.5710 -0.6921
18050THY    CA341718   3.305   1.789   7.555  0.0189  0.2130  0.2355
18050THY    HA341719   3.402   1.801   7.507  0.0340 -0.2252 -1.4298
18050THY    CA441720   3.265   1.666   7.600 -0.3451 -0.9963  0.6950
18050THY    HA441721   3.325   1.576   7.586 -0.6413  0.5788  0.2291
18050THY    CA541722   3.137   1.646   7.656 -0.2921 -0.0832  0.0389
18050THY    CM141723   3.088   1.505   7.697 -0.1516 -0.3410 -0.2778
18050THY    HM141724   3.134   1.483   7.794  1.9612 -0.6350  2.3551
18050THY    HM241725   3.113   1.427   7.624  1.3504  0.5766 -0.6891
18050THY    HM341726   2.981   1.499   7.717  0.0476  0.5435 -1.1121
18050THY    CA641727   3.056   1.759   7.678  0.2766  0.0765  0.4907
18050THY    HA641728   2.955   1.745   7.714 -0.1220 -0.9860  0.5865
18051THY      O41729   3.677   7.640   4.278  0.0950 -0.2844 -0.2849
18051THY     HO41730   3.741   7.614   4.210 -0.3303 -0.1420 -1.7776
18051THY    CA141731   3.573   7.545   4.261  0.4465  0.7426  0.3897
18051THY    CA241732   3.457   7.541   4.347 -0.0189  0.5584  0.6376
18051THY    CP141733   3.444   7.641   4.459 -0.0617  0.1806 -0.5600
18051THY    HP141734   3.532   7.706   4.455 -0.3793  0.5432 -0.1053
18051THY    CP241735   3.465   7.565   4.588  0.6190 -0.5633 -0.2724
18051THY    HP241736   3.566   7.524   4.603  0.6570  2.3664  0.6696
18051THY    HP341737   3.391   7.484   4.586  0.5552 -1.4267 -0.2014
18051THY    HP441738   3.453   7.632   4.673 -0.8092 -0.0918 -1.0652
18051THY    CP341739   3.316   7.726   4.460  0.5590 -0.0278 -0.2483
18051THY    HP541740   3.321   7.786   4.368 -0.9242  1.0868  1.6760
18051THY    HP641741   3.321   7.786   4.551 -1.3809 -1.3311  2.0690
18051THY    HP741742   3.221   7.672   4.456  0.8772  0.0949 -0.8287
18051THY    CA341743   3.348   7.462   4.313 -0.8811  0.2654 -0.9855
18051THY    HA341744   3.258   7.470   4.372 -1.2266 -0.5524  2.3013
18051THY    CA441745   3.352   7.393   4.196  0.1482 -0.0798 -0.5174
18051THY    HA441746   3.267   7.339   4.157  1.1433 -1.8213 -0.9095
18051THY    CA541747   3.461   7.403   4.102 -0.3648  0.4237  0.2190
18051THY    CM141748   3.453   7.334   3.963 -0.0242 -0.2265 -0.2456
18051THY    HM141749   3.345   7.319   3.951 -0.1126  1.0265 -0.7027
18051THY    HM241750   3.507   7.239   3.968  1.0821  1.3006  0.4318
18051THY    HM341751   3.484   7.405   3.885 -0.8395  0.9909  1.5487
18051THY    CA641752   3.567   7.486   4.135 -0.4304  0.3581 -0.0584
18051THY    HA641753   3.638   7.515   4.058 -2.3334 -1.5361 -0.1576
18052THY      O41754   2.042   3.123   6.816  0.1938  0.4197 -0.2562
18052THY     HO41755   2.124   3.166   6.847 -0.0538  1.2571 -0.3724
18052THY    CA141756   2.077   3.004   6.765  0.1589 -0.3902  0.0403
18052THY    CA241757   2.015   2.879   6.814  0.1022 -0.0776  0.0323
18052THY    CP141758   1.904   2.891   6.917  1.0948 -0.0656 -0.1752
18052THY    HP141759   1.839   2.972   6.884  1.5554  1.0913  0.6894
18052THY    CP241760   1.958   2.929   7.061 -0.1984  0.8765  0.1060
18052THY    HP241761   2.023   2.846   7.090  0.2130 -1.1991 -0.3450
18052THY    HP341762   1.876   2.949   7.131  1.7958  3.0696  1.0725
18052THY    HP441763   2.025   3.016   7.062  0.3452 -0.0700 -0.2836
18052THY    CP341764   1.816   2.765   6.939  0.0965 -0.4731 -0.4049
18052THY    HP541765   1.724   2.798   6.988 -0.4938 -0.1394 -2.4313
18052THY    HP641766   1.865   2.681   6.990  0.4261  1.4632  0.8932
18052THY    HP741767   1.782   2.733   6.840 -1.2477  0.0967 -0.7795
18052THY    CA341768   2.070   2.752   6.778 -0.2290 -0.1019 -0.1399
18052THY    HA341769   2.034   2.654   6.808 -0.0519 -0.0721 -0.1962
18052THY    CA441770   2.172   2.753   6.684 -0.1581  0.2541 -0.4581
18052THY    HA441771   2.216   2.657   6.659  0.9623  0.7389 -0.0940
18052THY    CA541772   2.236   2.873   6.642 -0.2503 -0.0429 -0.4391
18052THY    CM141773   2.350   2.874   6.542 -0.1915 -0.5095  0.6041
18052THY    HM141774   2.437   2.917   6.593 -0.5459  0.7364 -0.1112
18052THY    HM241775   2.323   2.917   6.444  1.3956 -1.1649  0.1630
18052THY    HM341776   2.368   2.773   6.506 -1.3809  0.3856  0.0509
18052THY    CA641777   2.180   2.996   6.677  0.3028 -0.4989  0.2216
18052THY    HA641778   2.217   3.087   6.630  2.2292 -0.0289 -0.2777
18053THY      O41779   2.615   7.482   7.717 -0.2057 -0.3921 -0.3753
18053THY     HO41780   2.604   7.531   7.633 -0.5617  1.2375  2.5962
18053THY    CA141781   2.487   7.454   7.751 -0.7753 -1.0332  0.6184
18053THY    CA241782   2.444   7.383   7.863  1.0706 -0.5286  0.0371
18053THY    CP141783   2.550   7.317   7.953 -0.0459 -0.1447  0.1255
18053THY    HP141784   2.653   7.343   7.928  0.1214  2.6460  2.7606
18053THY    CP241785   2.542   7.163   7.946  0.1687  0.1065 -0.1758
18053THY    HP241786   2.588   7.132   7.852 -2.4480 -1.6372  0.8669
18053THY    HP341787   2.442   7.119   7.934  0.6983  0.2341 -1.4531
18053THY    HP441788   2.591   7.105   8.025  1.4775 -1.7124 -1.6523
18053THY    CP341789   2.531   7.357   8.101 -0.2901  0.1441  0.3499
18053THY    HP541790   2.481   7.452   8.118 -1.0493 -0.9288  0.1728
18053THY    HP641791   2.626   7.335   8.151 -0.1926 -0.0440  0.3341
18053THY    HP741792   2.460   7.284   8.142  0.4584  0.0343 -0.4641
18053THY    CA341793   2.309   7.375   7.891 -0.1438 -0.0742  0.9966
18053THY    HA341794   2.272   7.324   7.980  1.9222  1.2421  1.6798
18053THY    CA441795   2.216   7.416   7.790 -0.0522 -0.1306 -0.2425
18053THY    HA441796   2.109   7.398   7.800 -0.1122  1.1829  0.6678
18053THY    CA541797   2.261   7.480   7.679 -0.1480  0.3587 -0.1694
18053THY    CM141798   2.162   7.526   7.571 -0.9194  0.6201 -0.2265
18053THY    HM141799   2.161   7.450   7.492  2.9546 -1.6243  1.6977
18053THY    HM241800   2.191   7.618   7.518 -1.2531  0.2104 -0.3511
18053THY    HM341801   2.065   7.551   7.616 -0.6404  0.6186  0.9413
18053THY    CA641802   2.395   7.496   7.658 -0.2418  0.3903 -0.7495
18053THY    HA641803   2.420   7.549   7.566  0.1359  0.7970 -0.2067
18054THY      O41804   5.861   2.776   2.867  0.5251  0.1540  0.2135
18054THY     HO41805   5.778   2.816   2.899  0.4496  0.7770 -0.4218
18054THY    CA141806   5.932   2.883   2.829  0.2641  0.7301 -0.2403
18054THY    CA241807   6.065   2.871   2.774  0.9844 -0.0590  0.0649
18054THY    CP141808   6.125   2.733   2.741  0.7037  0.1625  0.5618
18054THY    HP141809   6.078   2.668   2.816  0.2425  1.0819  1.9269
18054THY    CP241810   6.270   2.706   2.750  1.0182  0.0517  0.0112
18054THY    HP241811   6.290   2.598   2.748  0.1699 -0.4524 -0.1441
18054THY    HP341812   6.300   2.744   2.848 -2.8474  1.7648 -0.7995
18054THY    HP441813   6.327   2.747   2.666  1.1211  0.0811 -0.0721
18054THY    CP341814   6.083   2.686   2.600  0.5013  0.3111  0.1892
18054THY    HP541815   6.111   2.745   2.512  0.8682 -0.1336 -0.6352
18054THY    HP641816   5.975   2.667   2.602  0.0095 -0.6605  2.5704
18054THY    HP741817   6.122   2.587   2.575  0.1971  1.8591 -0.3502
18054THY    CA341818   6.136   2.989   2.740 -0.3561 -0.2603  0.1010
18054THY    HA341819   6.231   2.986   2.688 -0.1177  0.1964 -0.8139
18054THY    CA441820   6.071   3.111   2.753  0.1676  0.2805 -0.3830
18054THY    HA441821   6.124   3.206   2.746 -3.1751  2.0164  1.8294
18054THY    CA541822   5.930   3.121   2.786 -0.4911 -0.2166 -0.4761
18054THY    CM141823   5.870   3.252   2.807 -0.2230 -0.0127 -0.5863
18054THY    HM141824   5.760   3.245   2.799 -0.3241  2.2786 -3.3032
18054THY    HM241825   5.908   3.315   2.726  0.8537  1.9809  1.4597
18054THY    HM341826   5.897   3.292   2.905 -0.8048 -0.2634  0.4585
18054THY    CA641827   5.867   3.008   2.838 -0.1787  0.5169  0.3001
18054THY    HA641828   5.762   3.004   2.866 -1.8134 -4.7267 -0.3914
18055THY      O41829   2.537   1.092   6.956  0.1787 -0.2421 -0.2748
18055THY     HO41830   2.628   1.083   6.925 -0.1510 -1.2143 -0.3736
18055THY    CA141831   2.493   0.967   6.963  0.4243  0.3416  0.9611
18055THY    CA241832   2.358   0.946   6.983  0.1503  0.2009 -0.1625
18055THY    CP141833   2.267   1.062   6.949 -0.8271 -0.3551  0.1083
18055THY    HP141834   2.297   1.111   6.855  1.8304  1.4593  2.2607
18055THY    CP241835   2.261   1.168   7.068  0.3172 -0.5307 -0.7161
18055THY    HP241836   2.343   1.182   7.139 -1.5600  1.3342  1.8875
18055THY    HP341837   2.175   1.143   7.132  0.9878  0.8419  0.3588
18055THY    HP441838   2.224   1.261   7.023  0.0026 -2.2028 -1.6053
18055THY    CP341839   2.125   1.015   6.910  0.3107 -0.4309  0.7765
18055THY    HP541840   2.076   0.974   7.000 -0.8180 -1.5189 -0.3311
18055THY    HP641841   2.132   0.931   6.841  0.6596  1.0656 -0.4811
18055THY    HP741842   2.062   1.100   6.881  2.7395 -0.2996  2.7387
18055THY    CA341843   2.314   0.818   7.016  0.1080 -1.0547  0.2627
18055THY    HA341844   2.208   0.799   7.032  0.2390 -0.8931 -0.3512
18055THY    CA441845   2.403   0.709   7.034  0.2224  0.2575 -0.4873
18055THY    HA441846   2.367   0.607   7.040 -0.3445 -1.1076 -0.3810
18055THY    CA541847   2.540   0.736   7.023  0.0189  0.5080  0.6577
18055THY    CM141848   2.631   0.620   7.029  0.8555 -0.2723 -0.3913
18055THY    HM141849   2.588   0.520   7.012  0.3540  1.4074 -0.4786
18055THY    HM241850   2.676   0.606   7.127  0.4118 -0.1400 -0.9354
18055THY    HM341851   2.707   0.626   6.950 -0.2535 -1.3346 -0.0057
18055THY    CA641852   2.585   0.866   6.994  0.1459 -0.2833 -0.0176
18055THY    HA641853   2.692   0.865   6.977  0.1412 -0.3588 -1.3876
18056THY      O41854   3.032   5.284   3.962  0.4791  0.8385  0.1541
18056THY     HO41855   3.083   5.350   3.911  0.4546  0.5280 -0.0638
18056THY    CA141856   2.944   5.347   4.046  0.2237 -0.6049  0.1704
18056THY    CA241857   2.877   5.287   4.156 -0.1261 -0.1172  0.5044
18056THY    CP141858   2.909   5.142   4.186 -0.0725 -0.0215 -0.1057
18056THY    HP141859   2.921   5.083   4.095  2.9975 -0.2524  0.7248
18056THY    CP241860   2.804   5.071   4.272  0.2572 -0.2182  0.3894
18056THY    HP241861   2.702   5.073   4.232 -1.0219  2.7689  1.7223
18056THY    HP341862   2.806   5.111   4.374 -1.7142 -0.4433  1.1638
18056THY    HP441863   2.829   4.966   4.291  0.2967  0.3136  0.4883
18056THY    CP341864   3.049   5.119   4.260 -0.1916  0.0552  0.0742
18056THY    HP541865   3.050   5.176   4.354  1.6038  1.6695 -2.4479
18056THY    HP641866   3.132   5.142   4.193  0.6478  1.1503  0.3110
18056THY    HP741867   3.053   5.013   4.287 -0.7973 -0.1467 -0.0040
18056THY    CA341868   2.791   5.364   4.233  0.1870  0.2220  0.0832
18056THY    HA341869   2.740   5.322   4.319  2.7508  2.5351  1.4163
18056THY    CA441870   2.767   5.495   4.200  0.3257  0.6493 -0.0804
18056THY    HA441871   2.696   5.556   4.255  0.3060  0.0393  0.4523
18056THY    CA541872   2.833   5.561   4.097  0.3672  0.2627  0.2764
18056THY    CM141873   2.819   5.709   4.068  0.3220 -0.0245 -0.3180
18056THY    HM141874   2.801   5.784   4.146 -0.2064 -1.5909  1.2698
18056THY    HM241875   2.744   5.726   3.990  1.5221 -0.8103  1.7682
18056THY    HM341876   2.910   5.742   4.016  0.4370 -0.3127 -1.0635
18056THY    CA641877   2.918   5.482   4.024 -0.0415 -0.1946  0.2078
18056THY    HA641878   2.965   5.528   3.937 -0.1480  1.1078  3.0035
18057THY      O41879   8.040   1.410   7.213  0.6521  0.2951  0.3175
18057THY     HO41880   7.995   1.475   7.270 -2.9774 -1.5012 -0.3321
18057THY    CA141881   7.954   1.310   7.225 -0.5485  0.2220 -0.1644
18057THY    CA241882   7.952   1.201   7.142 -0.5987  0.3346  0.1187
18057THY    CP141883   8.053   1.164   7.039 -0.0825 -0.1670 -0.1896
18057THY    HP141884   8.113   1.255   7.029  0.1597  0.8893 -0.2276
18057THY    CP241885   7.991   1.133   6.901  0.7975 -0.1780 -0.3843
18057THY    HP241886   7.914   1.054   6.902 -0.5663 -0.3499  0.8986
18057THY    HP341887   8.073   1.100   6.836  1.1196  0.5798 -1.1050
18057THY    HP441888   7.944   1.226   6.867  1.5285  0.4941  0.2360
18057THY    CP341889   8.157   1.050   7.080  0.5922  0.3141 -0.0325
18057THY    HP541890   8.155   1.019   7.185 -0.7359  0.7060  1.2307
18057THY    HP641891   8.251   1.065   7.026 -0.0834 -0.4829  1.6084
18057THY    HP741892   8.119   0.958   7.036 -0.8380 -0.1161  0.7334
18057THY    CA341893   7.856   1.099   7.161  0.0400  0.5933  0.1617
18057THY    HA341894   7.846   1.006   7.106 -1.4267 -0.2224  0.7812
18057THY    CA441895   7.768   1.114   7.267 -0.2243  0.0707  0.3515
18057THY    HA441896   7.695   1.036   7.287 -0.9270  0.1756  1.0211
18057THY    CA541897   7.765   1.225   7.350  0.0871  0.0314 -0.4531
18057THY    CM141898   7.670   1.247   7.460 -0.0657  0.1508 -0.0153
18057THY    HM141899   7.621   1.152   7.482 -2.3537  0.7176  1.2309
18057THY    HM241900   7.604   1.327   7.425  1.5881 -0.6690  1.0389
18057THY    HM341901   7.718   1.287   7.551 -0.9865 -0.2053  2.0312
18057THY    CA641902   7.865   1.324   7.331 -0.0666  0.1325 -0.7209
18057THY    HA641903   7.848   1.416   7.386 -1.5477  2.2281 -2.1535
18058THY      O41904   7.975   2.443   6.806  0.5663 -0.2837  0.1523
18058THY     HO41905   8.017   2.462   6.720 -1.5881 -1.5361 -0.4838
18058THY    CA141906   7.868   2.362   6.769  0.3497 -0.0779 -0.4278
18058THY    CA241907   7.744   2.379   6.830 -0.5454  0.9295  0.2916
18058THY    CP141908   7.721   2.491   6.929 -0.2668  0.1282 -0.4347
18058THY    HP141909   7.798   2.566   6.909 -0.9033  3.0722  1.1047
18058THY    CP241910   7.716   2.457   7.078 -0.5111 -0.6483 -0.2110
18058THY    HP241911   7.617   2.438   7.122  0.0664  0.6212 -0.3636
18058THY    HP341912   7.756   2.547   7.127 -1.0964 -1.7387  0.6586
18058THY    HP441913   7.794   2.390   7.117  1.1314  1.6117  2.7448
18058THY    CP341914   7.588   2.571   6.907  0.0936 -0.9137 -0.0516
18058THY    HP541915   7.577   2.653   6.979  2.1685 -0.5801 -0.0059
18058THY    HP641916   7.510   2.494   6.910 -1.0446  0.0184  1.0975
18058THY    HP741917   7.578   2.610   6.806 -1.2172 -2.1162 -3.1432
18058THY    CA341918   7.649   2.274   6.803 -0.4881 -0.5017 -0.3034
18058THY    HA341919   7.557   2.257   6.858 -1.4763 -2.5717 -2.0775
18058THY    CA441920   7.676   2.165   6.714 -0.0212  0.3303  0.9310
18058THY    HA441921   7.601   2.087   6.705 -0.1603  0.2370  1.0745
18058THY    CA541922   7.804   2.155   6.661 -0.0005 -0.1985 -0.1244
18058THY    CM141923   7.856   2.023   6.599 -0.6468  0.0299  0.2315
18058THY    HM141924   7.845   1.943   6.673 -0.9670  0.1703  0.4023
18058THY    HM241925   7.958   2.032   6.559 -1.6632 -2.6830  0.5841
18058THY    HM341926   7.804   2.008   6.504 -1.8264  0.4377  1.5823
18058THY    CA641927   7.898   2.254   6.689  0.6440  0.0643  0.3687
18058THY    HA641928   8.002   2.241   6.661  1.3020  2.0071  1.0242
18059THY      O41929   4.495   1.380   4.734 -0.5939 -0.2323  0.3416
18059THY     HO41930   4.581   1.348   4.765  0.2935 -1.2718  1.6036
18059THY    CA141931   4.468   1.497   4.795  0.2554 -0.2491 -0.1659
18059THY    CA241932   4.359   1.579   4.750  0.5734  0.5551 -0.5917
18059THY    CP141933   4.285   1.553   4.622  0.4259  0.0342 -0.1215
18059THY    HP141934   4.321   1.459   4.579 -0.5074  2.2690 -1.5866
18059THY    CP241935   4.312   1.665   4.521 -0.2803  0.2074  1.1932
18059THY    HP241936   4.265   1.757   4.558  0.2420  1.4356  0.9834
18059THY    HP341937   4.275   1.619   4.428 -1.9198  1.3092  0.1679
18059THY    HP441938   4.415   1.702   4.520  0.1001  2.4212  0.3317
18059THY    CP341939   4.134   1.541   4.651  0.2801 -0.1232  0.0445
18059THY    HP541940   4.131   1.465   4.730 -1.1839  1.5611  1.7439
18059THY    HP641941   4.082   1.510   4.560  0.6752 -1.0819  2.0504
18059THY    HP741942   4.089   1.634   4.688 -0.2855 -0.2019 -0.1965
18059THY    CA341943   4.335   1.700   4.818  0.4145  0.2578 -0.3074
18059THY    HA341944   4.268   1.778   4.781  1.8237  0.2508  0.9475
18059THY    CA441945   4.406   1.728   4.936 -0.7156  0.3331  0.8286
18059THY    HA441946   4.379   1.816   4.995  0.2882  1.1320  0.6307
18059THY    CA541947   4.497   1.635   4.990  0.7171 -0.4118 -0.5307
18059THY    CM141948   4.568   1.670   5.120 -0.7250 -0.5707 -0.1754
18059THY    HM141949   4.660   1.719   5.085 -1.2800 -1.6268  0.1334
18059THY    HM241950   4.600   1.581   5.176 -3.0744  1.5856  0.2306
18059THY    HM341951   4.510   1.740   5.182  0.3332 -0.2521  0.4462
18059THY    CA641952   4.539   1.524   4.910  0.1627  0.0731 -0.5499
18059THY    HA641953   4.604   1.446   4.949 -0.3570 -1.0562 -1.5724
18060THY      O41954   3.026   7.256   1.964  0.3797 -0.1110  0.1204
18060THY     HO41955   2.948   7.265   2.021  0.6110  0.2270  0.0064
18060THY    CA141956   3.050   7.384   1.919  0.0184  0.2107  0.4763
18060THY    CA241957   3.161   7.417   1.843 -0.5116 -0.2667 -0.0515
18060THY    CP141958   3.261   7.308   1.811  0.2558 -0.3485 -0.2114
18060THY    HP141959   3.200   7.219   1.793 -0.5883  2.3634 -0.2641
18060THY    CP241960   3.358   7.292   1.935 -0.7255 -0.2554  0.0893
18060THY    HP241961   3.433   7.220   1.900 -0.5204  0.8681 -0.2462
18060THY    HP341962   3.306   7.253   2.023 -0.5266 -0.7613 -1.3621
18060THY    HP441963   3.400   7.389   1.964  2.9782  0.2560 -1.5239
18060THY    CP341964   3.340   7.334   1.681 -0.0691 -0.2484 -1.2346
18060THY    HP541965   3.281   7.390   1.608  2.1354 -1.1880  0.0010
18060THY    HP641966   3.367   7.236   1.638 -2.4714 -1.2131 -1.5370
18060THY    HP741967   3.422   7.403   1.703 -1.6455 -0.9423  0.9504
18060THY    CA341968   3.185   7.550   1.816  0.7224  0.7569 -0.1319
18060THY    HA341969   3.282   7.582   1.779  0.2576 -0.7309 -0.3303
18060THY    CA441970   3.096   7.645   1.863  0.1968 -0.3834 -0.2991
18060THY    HA441971   3.115   7.750   1.844 -1.6959  1.5586  0.4674
18060THY    CA541972   2.973   7.607   1.921 -0.9893 -0.3161  0.0675
18060THY    CM141973   2.868   7.715   1.938 -0.0944 -0.3057  0.6196
18060THY    HM141974   2.828   7.745   1.840 -1.3611  0.4426  1.4996
18060THY    HM241975   2.897   7.806   1.991  1.0145 -2.3021  1.4906
18060THY    HM341976   2.784   7.666   1.988 -0.0189  0.2227  1.0204
18060THY    CA641977   2.955   7.475   1.950 -0.0769 -0.0084  0.2576
18060THY    HA641978   2.859   7.438   1.984 -0.5020 -1.9510 -0.5407
18061THY      O41979   9.215   2.657   2.467 -0.0992  0.1042 -0.2509
18061THY     HO41980   9.213   2.667   2.370  1.0255  0.1227  0.3440
18061THY    CA141981   9.286   2.543   2.490 -0.1670  0.0635 -0.3484
18061THY    CA241982   9.346   2.513   2.613  0.3875 -0.3581 -0.3809
18061THY    CP141983   9.347   2.610   2.729  0.3056 -0.4685 -0.0184
18061THY    HP141984   9.303   2.702   2.689  1.8816 -1.7953  0.2233
18061THY    CP241985   9.489   2.663   2.767 -0.1315  1.0830 -0.4708
18061THY    HP241986   9.505   2.748   2.700 -4.1128  0.6451  0.0967
18061THY    HP341987   9.574   2.596   2.749  0.5154  1.4137  0.2365
18061THY    HP441988   9.493   2.704   2.869  0.5067  0.3755  1.3265
18061THY    CP341989   9.281   2.557   2.849 -0.1799 -0.3905 -0.7271
18061THY    HP541990   9.323   2.466   2.894 -0.6046  3.7592  0.9114
18061THY    HP641991   9.178   2.528   2.827 -0.4672  1.2254 -1.0473
18061THY    HP741992   9.281   2.626   2.935 -0.1710 -0.0492 -1.1450
18061THY    CA341993   9.416   2.388   2.621 -0.8073  0.5876 -1.0307
18061THY    HA341994   9.467   2.352   2.710  0.4006 -0.3384 -1.6757
18061THY    CA441995   9.421   2.301   2.511 -0.7586 -0.0580  0.2025
18061THY    HA441996   9.488   2.215   2.516 -1.1572  0.3348 -0.0879
18061THY    CA541997   9.371   2.337   2.383  0.1723 -0.4348  0.0528
18061THY    CM141998   9.385   2.246   2.274  0.1124 -0.2045  0.1726
18061THY    HM141999   9.314   2.164   2.289  1.4323  3.2327 -0.4955
18061THY    HM242000   9.490   2.219   2.265  1.1811  0.6568  3.5002
18061THY    HM342001   9.355   2.302   2.184  1.0829  0.1916  1.3632
18061THY    CA642002   9.309   2.457   2.375 -0.3089 -0.2072  0.2354
18061THY    HA642003   9.271   2.488   2.279 -0.0755 -0.3192  0.1744
18062THY      O42004   4.594   8.943   6.822 -0.0421  0.4801 -0.3024
18062THY     HO42005   4.628   8.914   6.736 -0.5673  0.1689 -0.0016
18062THY    CA142006   4.703   8.947   6.911  0.1959  0.1027 -0.0816
18062THY    CA242007   4.681   8.959   7.056  0.4255  0.3318 -0.6194
18062THY    CP142008   4.547   8.978   7.112  0.0037 -0.3175 -0.8155
18062THY    HP142009   4.471   8.970   7.033  0.2509 -0.4133 -2.6574
18062THY    CP242010   4.529   9.123   7.168  1.1459  0.1128 -1.0707
18062THY    HP242011   4.423   9.148   7.173  1.0313 -1.5863 -1.0560
18062THY    HP342012   4.588   9.193   7.107 -0.8837 -0.1870  0.4480
18062THY    HP442013   4.558   9.129   7.273  0.8742  0.2384 -1.8543
18062THY    CP342014   4.503   8.874   7.222  0.3736  0.1345  0.2362
18062THY    HP542015   4.515   8.771   7.186 -2.0363 -0.6161  0.1435
18062THY    HP642016   4.410   8.888   7.279 -0.5314 -0.4740 -2.6054
18062THY    HP742017   4.569   8.875   7.309  0.1774  0.3652 -1.7705
18062THY    CA342018   4.799   8.969   7.136 -0.6035  0.2723 -0.5666
18062THY    HA342019   4.793   8.978   7.244  0.8009  0.4317 -1.2859
18062THY    CA442020   4.925   8.966   7.077  0.5882  0.2205  0.2608
18062THY    HA442021   5.013   8.966   7.140 -0.2947  1.7209 -3.2561
18062THY    CA542022   4.944   8.940   6.942 -0.3911 -0.7302  0.4904
18062THY    CM142023   5.077   8.935   6.888 -0.2392  0.6783 -0.3036
18062THY    HM142024   5.086   9.029   6.832 -0.9899  0.1560 -0.5294
18062THY    HM242025   5.098   8.851   6.822  0.3363  0.8539 -0.2990
18062THY    HM342026   5.154   8.930   6.966 -2.0352  2.5827  0.0860
18062THY    CA642027   4.834   8.934   6.856 -0.1513 -0.3265 -0.2161
18062THY    HA642028   4.847   8.922   6.749 -0.4057 -0.6439  1.9545
18063THY      O42029   6.026   1.963   4.019  0.1743 -0.2971  0.0971
18063THY     HO42030   5.944   1.973   3.968  0.5282 -1.2326 -1.3300
18063THY    CA142031   6.050   1.829   4.023  0.1743 -0.0494 -1.1008
18063THY    CA242032   6.137   1.767   4.103 -0.3848  0.0668 -0.1864
18063THY    CP142033   6.212   1.854   4.203 -0.3680  0.0459 -0.5721
18063THY    HP142034   6.203   1.962   4.191 -0.6050  0.2589 -0.5663
18063THY    CP242035   6.365   1.814   4.206 -0.1394  0.4715 -0.4088
18063THY    HP242036   6.374   1.712   4.243 -2.3996 -2.0354 -1.6495
18063THY    HP342037   6.421   1.870   4.281  0.1859  2.1559 -2.8489
18063THY    HP442038   6.416   1.812   4.109 -0.2435  0.4306 -1.5563
18063THY    CP342039   6.144   1.832   4.336  0.0859  0.1670 -0.2241
18063THY    HP542040   6.187   1.897   4.413 -0.4263 -0.2586  0.6399
18063THY    HP642041   6.155   1.727   4.366 -0.4263  0.6950 -0.1333
18063THY    HP742042   6.038   1.859   4.327  0.8264  0.0653  3.0427
18063THY    CA342043   6.142   1.628   4.101 -0.7668  0.6123  0.4936
18063THY    HA342044   6.210   1.576   4.167  1.6786 -2.7543 -0.9923
18063THY    CA442045   6.072   1.548   4.009 -0.4987  0.0160 -0.2547
18063THY    HA442046   6.073   1.440   4.023  2.9310  0.7861 -0.2596
18063THY    CA542047   5.982   1.621   3.927 -0.7285  0.4927  0.4932
18063THY    CM142048   5.894   1.553   3.833  0.1135  0.2613  0.0762
18063THY    HM142049   5.899   1.580   3.727 -0.1955 -0.6045 -2.9939
18063THY    HM242050   5.792   1.585   3.856 -0.1178 -0.2556 -0.2874
18063THY    HM342051   5.907   1.445   3.823 -0.9204  2.3996 -0.3082
18063THY    CA642052   5.974   1.761   3.937  0.6761  0.5391  0.2419
18063THY    HA642053   5.897   1.808   3.877  0.2726  0.3320 -0.6738
18064THY      O42054   2.674   5.766   3.112 -0.2399 -0.7079 -0.4623
18064THY     HO42055   2.637   5.848   3.151 -4.0411  1.2623 -2.8347
18064THY    CA142056   2.804   5.799   3.089 -0.0798 -0.3877  0.2059
18064THY    CA242057   2.890   5.728   2.996 -0.0035  0.2256 -0.0278
18064THY    CP142058   2.818   5.614   2.924  0.0206  0.0432  0.0295
18064THY    HP142059   2.711   5.634   2.918  0.1689 -0.1084  0.8450
18064THY    CP242060   2.826   5.482   3.004  0.3642 -0.6079  0.4895
18064THY    HP242061   2.762   5.497   3.091 -0.7034 -1.5121  1.3613
18064THY    HP342062   2.924   5.446   3.038  0.2999  2.6061  2.8676
18064THY    HP442063   2.791   5.403   2.937 -0.9487  0.3898  0.1955
18064THY    CP342064   2.867   5.586   2.778  0.2104  0.1487 -0.2144
18064THY    HP542065   2.965   5.536   2.779 -0.4982  0.4869 -1.6453
18064THY    HP642066   2.870   5.676   2.716 -0.6342  0.2209 -0.1342
18064THY    HP742067   2.802   5.514   2.728 -0.6848  0.2355  0.5261
18064THY    CA342068   3.025   5.766   2.970  0.2799 -0.4568  0.1623
18064THY    HA342069   3.079   5.717   2.890  0.1396 -0.8475  0.6386
18064THY    CA442070   3.078   5.872   3.044  0.6592  0.4816 -0.7725
18064THY    HA442071   3.179   5.909   3.026  0.6844 -0.8370 -1.4674
18064THY    CA542072   2.990   5.949   3.129 -0.0965  0.1680 -0.5009
18064THY    CM142073   3.028   6.069   3.201  0.0590 -0.1163 -0.0462
18064THY    HM142074   3.002   6.163   3.152  0.3720  0.7319  0.4892
18064THY    HM242075   3.137   6.080   3.213  0.1889 -1.6281  0.5778
18064THY    HM342076   2.988   6.073   3.303 -1.5705 -0.6805 -0.8645
18064THY    CA642077   2.856   5.915   3.143 -0.5885  0.2550 -0.4224
18064THY    HA642078   2.797   5.979   3.209 -1.8321 -0.5724 -0.6901
18065THY      O42079   7.057   8.997   4.785  0.0297  0.0708 -0.3828
18065THY     HO42080   7.129   9.023   4.725 -0.7737 -1.1867 -0.9944
18065THY    CA142081   7.024   9.112   4.854  0.1533  0.7553 -0.0024
18065THY    CA242082   6.945   9.118   4.970  0.8010  0.2070  0.5671
18065THY    CP142083   6.888   8.984   5.034 -0.2755  0.1550  0.3465
18065THY    HP142084   6.933   8.896   4.986 -2.0607  2.1759 -1.8167
18065THY    CP242085   6.738   8.978   5.008  0.7009  0.3152  0.0262
18065THY    HP242086   6.684   8.925   5.088  0.4948  0.5549  0.5872
18065THY    HP342087   6.711   8.951   4.905 -0.9826  0.3210  1.4594
18065THY    HP442088   6.705   9.079   5.032  0.5425 -0.1637  0.0897
18065THY    CP342089   6.910   8.981   5.185 -0.5668 -0.0495  1.1293
18065THY    HP542090   7.019   8.987   5.193 -0.5916 -0.4574  2.2889
18065THY    HP642091   6.884   8.882   5.224  2.6569 -1.2800 -0.3322
18065THY    HP742092   6.856   9.056   5.242 -0.6989  0.8433  0.3742
18065THY    CA342093   6.932   9.239   5.038 -0.3072 -0.1155  0.0371
18065THY    HA342094   6.869   9.246   5.126 -1.6569 -0.4496 -4.6238
18065THY    CA442095   6.984   9.359   4.978 -0.2912  0.4226  0.4759
18065THY    HA442096   6.967   9.458   5.020  1.0622  0.1287  0.8447
18065THY    CA542097   7.056   9.349   4.864 -0.7699 -0.2294 -0.3737
18065THY    CM142098   7.099   9.485   4.799 -0.9430 -0.3212  0.1304
18065THY    HM142099   7.141   9.460   4.701 -0.5689  0.3989 -2.3313
18065THY    HM242100   7.175   9.529   4.865  2.7346 -2.0273 -3.0792
18065THY    HM342101   7.016   9.556   4.807 -0.9298  0.0686  0.1062
18065THY    CA642102   7.081   9.224   4.806  0.0459 -0.4818 -0.2453
18065THY    HA642103   7.132   9.221   4.710  0.1894 -0.4028 -0.3447
18066THY      O42104   7.223   6.941   2.396 -0.0754  0.3988  0.4652
18066THY     HO42105   7.222   6.851   2.360 -2.5127  1.7269 -0.0996
18066THY    CA142106   7.148   7.001   2.296 -0.0080 -0.0449  0.6845
18066THY    CA242107   7.141   7.140   2.290  0.1682 -0.4738 -0.0683
18066THY    CP142108   7.205   7.227   2.401 -0.2346  0.3077 -0.0078
18066THY    HP142109   7.267   7.164   2.465  0.9965 -2.2578 -1.5940
18066THY    CP242110   7.103   7.293   2.498  0.0509 -0.1478  0.1310
18066THY    HP242111   7.022   7.226   2.530  0.6328  0.6847 -0.1984
18066THY    HP342112   7.064   7.388   2.460 -0.2249 -0.7490 -0.2175
18066THY    HP442113   7.148   7.318   2.595  1.7097 -0.8050 -0.2309
18066THY    CP342114   7.296   7.332   2.344 -0.6662 -0.0323  0.2802
18066THY    HP542115   7.371   7.371   2.415  1.6762 -2.3079  0.1994
18066THY    HP642116   7.252   7.413   2.285  2.7768 -1.1826  1.5091
18066THY    HP742117   7.357   7.288   2.265 -1.2095  0.2165 -0.9654
18066THY    CA342118   7.059   7.199   2.189 -0.6284 -0.2550  0.4303
18066THY    HA342119   7.048   7.307   2.193 -2.1875 -1.3537  0.3447
18066THY    CA442120   6.976   7.120   2.108 -0.5259 -0.1951  0.6257
18066THY    HA442121   6.908   7.172   2.042  0.9394 -1.0305  1.5640
18066THY    CA542122   6.993   6.975   2.109  0.3300  0.3037  0.4274
18066THY    CM142123   6.912   6.882   2.023 -0.8923 -0.3540 -0.1913
18066THY    HM142124   6.826   6.927   1.973 -0.0993 -0.6446  1.0561
18066THY    HM242125   6.863   6.804   2.081  0.5143  0.5644 -0.4348
18066THY    HM342126   6.978   6.829   1.953 -2.0704 -0.5296 -1.4849
18066THY    CA642127   7.076   6.919   2.209 -0.4691 -0.9130  0.3648
18066THY    HA642128   7.073   6.812   2.223  1.9707 -0.8933  0.2556
18067THY      O42129   7.860   6.595   4.738 -0.3855 -0.6904  0.6998
18067THY     HO42130   7.796   6.668   4.746 -2.2587 -1.3238 -0.8065
18067THY    CA142131   7.961   6.658   4.680  0.1927  0.0832 -0.3959
18067THY    CA242132   8.089   6.601   4.667  0.3134 -0.0793  0.0271
18067THY    CP142133   8.122   6.470   4.744 -0.8943 -0.3467  0.2545
18067THY    HP142134   8.052   6.446   4.825 -1.8644 -1.1966  0.1112
18067THY    CP242135   8.255   6.491   4.827 -1.0428  0.0383 -0.5054
18067THY    HP242136   8.290   6.594   4.819 -2.9332  0.9488  0.2457
18067THY    HP342137   8.339   6.425   4.802 -1.0584  1.4193 -1.0885
18067THY    HP442138   8.240   6.482   4.935  0.2639  0.1541 -1.7511
18067THY    CP342139   8.124   6.336   4.661  0.3230  0.2381 -0.3792
18067THY    HP542140   8.189   6.345   4.573  1.5741  1.1277 -0.5313
18067THY    HP642141   8.023   6.324   4.620  0.9808 -1.3120 -0.8924
18067THY    HP742142   8.150   6.249   4.723 -1.8028  0.6526 -0.7689
18067THY    CA342143   8.176   6.666   4.581 -0.0712  0.1824  0.1854
18067THY    HA342144   8.279   6.633   4.577 -0.1410  0.0258 -0.0159
18067THY    CA442145   8.143   6.793   4.525  0.3240  0.5305  0.3491
18067THY    HA442146   8.205   6.842   4.450  1.0822 -0.6179 -2.2315
18067THY    CA542147   8.018   6.848   4.542  0.5070 -0.9157 -0.5009
18067THY    CM142148   7.990   6.983   4.481 -0.0134  0.5881 -0.0426
18067THY    HM142149   7.932   7.040   4.555  0.3163  0.1752  0.8344
18067THY    HM242150   7.942   6.969   4.384 -0.3461  0.8211 -0.5847
18067THY    HM342151   8.088   7.032   4.472 -0.7964  0.1047  1.4858
18067THY    CA642152   7.929   6.782   4.618 -0.0410 -0.4684  0.1145
18067THY    HA642153   7.826   6.816   4.621 -0.2604 -0.7095 -0.5080
18068THY      O42154   4.749   0.696   7.093  0.1324 -0.1940 -0.1487
18068THY     HO42155   4.795   0.656   7.169  1.3387 -1.6503 -1.7145
18068THY    CA142156   4.640   0.623   7.068  0.5681 -0.4027  0.9101
18068THY    CA242157   4.550   0.664   6.968 -0.2625 -0.0326  0.5599
18068THY    CP142158   4.564   0.805   6.908 -0.6594  0.2174  0.3089
18068THY    HP142159   4.643   0.861   6.959 -0.3012 -0.4513  0.4176
18068THY    CP242160   4.444   0.891   6.912 -0.0290 -0.4219 -0.1886
18068THY    HP242161   4.430   0.928   7.015  0.9529 -0.8496  1.4769
18068THY    HP342162   4.351   0.843   6.880 -0.3185 -0.2830  0.2697
18068THY    HP442163   4.453   0.981   6.850  1.9586 -0.8126 -0.6142
18068THY    CP342164   4.611   0.787   6.760  0.0820 -0.1879  0.4772
18068THY    HP542165   4.533   0.734   6.704 -1.4935 -0.3243  2.7858
18068THY    HP642166   4.701   0.725   6.771 -0.9760 -1.0945 -1.2829
18068THY    HP742167   4.632   0.882   6.708 -0.3370 -0.7961  0.2459
18068THY    CA342168   4.448   0.573   6.916 -0.4750 -0.2972 -0.1823
18068THY    HA342169   4.378   0.597   6.837 -0.2029 -0.3971  0.2994
18068THY    CA442170   4.447   0.450   6.972  0.0426  0.3307  0.0459
18068THY    HA442171   4.383   0.373   6.931  0.5037 -0.7159  0.1987
18068THY    CA542172   4.528   0.415   7.086  0.6098 -0.1378  0.0151
18068THY    CM142173   4.524   0.279   7.142  0.5930  0.6965  0.2963
18068THY    HM142174   4.482   0.211   7.067  0.6033 -0.1186  1.1726
18068THY    HM242175   4.475   0.275   7.240  0.7362  0.7851  0.7325
18068THY    HM342176   4.626   0.244   7.162  0.6726  0.6304  0.4949
18068THY    CA642177   4.618   0.504   7.141 -0.6295  0.1090  0.7398
18068THY    HA642178   4.679   0.471   7.225 -2.2500  1.1301  0.2354
18069THY      O42179   4.059   7.229   1.923  0.0917 -1.0043  0.7720
18069THY     HO42180   4.069   7.231   1.826 -0.7005 -1.0843  1.2642
18069THY    CA142181   3.946   7.159   1.946  0.8097  0.1898 -0.4222
18069THY    CA242182   3.882   7.168   2.069 -0.0036 -0.2748 -0.4532
18069THY    CP142183   3.945   7.240   2.188 -0.4597 -0.0329 -0.1835
18069THY    HP142184   3.990   7.329   2.143 -0.6240 -0.7699 -0.4615
18069THY    CP242185   4.054   7.165   2.253 -1.0283 -0.0025  0.2647
18069THY    HP242186   4.027   7.063   2.280 -1.2262  2.1064  0.8196
18069THY    HP342187   4.102   7.215   2.338  0.9564 -1.3758  0.8694
18069THY    HP442188   4.131   7.153   2.176 -0.9346 -0.0286  0.9486
18069THY    CP342189   3.848   7.292   2.292 -0.4561  0.1280 -0.0951
18069THY    HP542190   3.795   7.217   2.352 -1.3213 -0.0885  0.3411
18069THY    HP642191   3.772   7.350   2.239  1.2116 -1.8710  0.3840
18069THY    HP742192   3.908   7.354   2.360 -1.6969  1.0160  0.1561
18069THY    CA342193   3.763   7.091   2.083  0.0187 -0.0143  0.2847
18069THY    HA342194   3.712   7.091   2.179 -1.3160 -0.6796 -0.8127
18069THY    CA442195   3.726   7.002   1.981  0.1560  0.4945 -0.0947
18069THY    HA442196   3.646   6.929   1.989  2.0702  1.1122 -2.2491
18069THY    CA542197   3.788   6.992   1.856  0.5716 -0.7523 -0.1985
18069THY    CM142198   3.737   6.898   1.751  0.4779  0.0952 -0.7108
18069THY    HM142199   3.631   6.911   1.728  0.3397  1.0194 -0.1223
18069THY    HM242200   3.745   6.799   1.798  0.7551  1.5332 -0.0381
18069THY    HM342201   3.797   6.896   1.659  0.4815  0.0961 -0.6624
18069THY    CA642202   3.896   7.076   1.844 -0.0521 -0.3919 -0.6461
18069THY    HA642203   3.945   7.075   1.747  1.5178  0.3656 -0.0651
18070THY      O42204   4.208   7.666   5.392 -0.2624  0.3360  0.3128
18070THY     HO42205   4.118   7.694   5.416  0.4849  1.2075  2.1649
18070THY    CA142206   4.245   7.579   5.489 -0.2712  0.6363  0.0220
18070THY    CA242207   4.356   7.491   5.475  0.1537 -0.1005  0.5352
18070THY    CP142208   4.427   7.485   5.339 -0.4139  0.5102  0.4855
18070THY    HP142209   4.429   7.581   5.285  0.8926  0.7261  0.6032
18070THY    CP242210   4.369   7.379   5.241  0.0994 -0.2661 -0.0569
18070THY    HP242211   4.394   7.274   5.262  2.4869  2.0263  0.8434
18070THY    HP342212   4.400   7.400   5.138  2.2969  0.0934 -1.2438
18070THY    HP442213   4.262   7.399   5.250  0.1369 -0.2139  0.1296
18070THY    CP342214   4.579   7.450   5.357 -0.4529 -0.0072  0.3582
18070THY    HP542215   4.593   7.355   5.410  1.4358  0.5362  0.8965
18070THY    HP642216   4.623   7.528   5.421  0.7380  0.6875 -0.8401
18070THY    HP742217   4.632   7.445   5.261 -1.0492 -0.4005  1.3396
18070THY    CA342218   4.371   7.398   5.584 -0.3575  0.5744  0.0936
18070THY    HA342219   4.449   7.323   5.582  0.1797 -0.7325  0.6628
18070THY    CA442220   4.269   7.392   5.684 -0.0581  0.6491  0.4579
18070THY    HA442221   4.273   7.324   5.769  0.6969 -1.6126 -2.5265
18070THY    CA542222   4.167   7.488   5.699  0.1839 -0.4717  0.3004
18070THY    CM142223   4.065   7.473   5.812 -0.0972 -0.1382 -0.7253
18070THY    HM142224   4.114   7.468   5.910  2.1483 -1.2154 -1.0772
18070THY    HM242225   4.026   7.372   5.794 -2.2296 -1.3742  0.2373
18070THY    HM342226   3.985   7.546   5.799 -1.9163  1.2268 -2.3566
18070THY    CA642227   4.160   7.579   5.596  0.0994  0.2314  0.1358
18070THY    HA642228   4.079   7.650   5.605 -1.7712 -1.3522 -1.6547
18071THY      O42229   5.130   7.049   5.827 -0.5882  0.2612 -0.1687
18071THY     HO42230   5.120   7.048   5.924  1.4751  0.5824  2.2667
18071THY    CA142231   5.162   7.172   5.779 -0.7229  0.3988 -0.1427
18071THY    CA242232   5.134   7.216   5.647 -0.2732 -0.1700  0.1139
18071THY    CP142233   5.067   7.115   5.550 -0.5156  0.5015  0.0715
18071THY    HP142234   5.046   7.018   5.597  1.5237  2.3498  0.4524
18071THY    CP242235   5.164   7.094   5.435 -0.1361 -0.5233 -0.0687
18071THY    HP242236   5.266   7.067   5.464 -0.4235 -0.4985 -1.1642
18071THY    HP342237   5.160   7.183   5.371 -3.5257 -0.4652 -0.0368
18071THY    HP442238   5.114   7.017   5.375  2.2798 -0.3518 -1.8853
18071THY    CP342239   4.930   7.165   5.502 -0.4484 -0.9758  0.0207
18071THY    HP542240   4.856   7.147   5.581  0.5206 -0.6733 -3.2267
18071THY    HP642241   4.908   7.109   5.411 -2.8785  1.6322 -3.7116
18071THY    HP742242   4.932   7.273   5.484 -1.0920  0.5364  0.3186
18071THY    CA342243   5.174   7.346   5.608 -0.8584 -0.4292  0.2191
18071THY    HA342244   5.152   7.388   5.510 -0.9140 -0.0191  1.1820
18071THY    CA442245   5.235   7.429   5.702  0.2051 -0.4263 -0.0211
18071THY    HA442246   5.253   7.533   5.678 -1.0296 -1.1439  0.0388
18071THY    CA542247   5.244   7.386   5.837  0.6857  0.4683 -0.4342
18071THY    CM142248   5.302   7.468   5.940  0.3604 -0.3764 -0.1972
18071THY    HM142249   5.407   7.437   5.941  0.5018  1.5355  0.2416
18071THY    HM242250   5.253   7.451   6.037 -0.3566 -0.1689  2.5157
18071THY    HM342251   5.306   7.577   5.934 -1.4258 -0.2941 -0.0993
18071THY    CA642252   5.212   7.259   5.874 -0.4986 -0.9683  0.3763
18071THY    HA642253   5.232   7.227   5.976 -0.0483 -1.1261  0.1450
18072THY      O42254   1.252   2.482   6.505  0.2203  0.0184  0.3454
18072THY     HO42255   1.336   2.435   6.516  1.0315 -1.5767  1.3111
18072THY    CA142256   1.276   2.612   6.538 -0.4884 -0.3741 -0.5489
18072THY    CA242257   1.182   2.699   6.615  0.2092  0.2283  0.6463
18072THY    CP142258   1.041   2.648   6.651 -0.1831  0.2459 -0.2748
18072THY    HP142259   1.059   2.550   6.697 -1.6415  0.1591 -0.6031
18072THY    CP242260   0.957   2.617   6.522 -0.0770 -0.4606  0.3295
18072THY    HP242261   1.025   2.564   6.454 -0.7205 -0.7666 -0.1198
18072THY    HP342262   0.917   2.711   6.481  0.4195 -0.3282  0.6033
18072THY    HP442263   0.873   2.555   6.554  0.4567  0.7915  0.2329
18072THY    CP342264   0.956   2.747   6.739 -0.7591 -0.5859  0.6359
18072THY    HP542265   0.860   2.693   6.747 -0.5153 -0.3462  0.2334
18072THY    HP642266   0.934   2.845   6.695 -2.5331 -1.2207 -0.0038
18072THY    HP742267   0.996   2.754   6.841  0.5925 -0.9297 -1.3651
18072THY    CA342268   1.229   2.814   6.661  0.0079  0.0074 -1.2345
18072THY    HA342269   1.159   2.885   6.705 -0.3661 -4.8558  1.9206
18072THY    CA442270   1.361   2.861   6.632  0.3003  0.0837  0.8534
18072THY    HA442271   1.390   2.957   6.674  0.0435 -0.6715  1.2648
18072THY    CA542272   1.445   2.785   6.550  0.6051 -0.1451 -0.4398
18072THY    CM142273   1.584   2.837   6.519 -0.0392  0.3406 -0.2307
18072THY    HM142274   1.576   2.942   6.487 -0.4747  1.1700 -0.0041
18072THY    HM242275   1.626   2.792   6.428  0.0920 -0.2794  1.0924
18072THY    HM342276   1.655   2.819   6.600  0.1357  0.1749 -0.2840
18072THY    CA642277   1.400   2.661   6.504 -0.6248 -0.1503 -0.2588
18072THY    HA642278   1.476   2.604   6.452  0.3131  0.3807  0.4908
18073THY      O42279   3.128   3.499   2.269  0.5797 -0.0387  0.1699
18073THY     HO42280   3.071   3.543   2.334 -2.6355 -2.7466  0.3822
18073THY    CA142281   3.250   3.545   2.295 -0.0177  0.4154  0.5481
18073THY    CA242282   3.342   3.578   2.198 -0.0825  0.6788 -0.1472
18073THY    CP142283   3.303   3.562   2.053  0.0942  0.1934  1.4322
18073THY    HP142284   3.199   3.534   2.032  0.5283 -0.7284  0.4416
18073THY    CP242285   3.377   3.445   1.976 -0.1027 -0.8649 -0.2162
18073THY    HP242286   3.354   3.430   1.870  2.0207 -1.3370 -0.4800
18073THY    HP342287   3.353   3.347   2.021 -1.9471  0.9607  0.9983
18073THY    HP442288   3.485   3.453   1.994 -0.4256  0.2045  2.9657
18073THY    CP342289   3.321   3.693   1.976 -0.6932 -0.2483 -0.2875
18073THY    HP542290   3.253   3.775   2.004 -0.0189 -1.1157  0.5895
18073THY    HP642291   3.300   3.678   1.870  0.3582 -0.3117 -1.3719
18073THY    HP742292   3.422   3.732   1.986 -1.2823  0.2828  1.1693
18073THY    CA342293   3.475   3.608   2.238  0.8238  0.4184  0.3384
18073THY    HA342294   3.545   3.626   2.157 -1.8517 -2.5114 -1.3848
18073THY    CA442295   3.510   3.620   2.371  0.0806  0.4893  0.3998
18073THY    HA442296   3.608   3.659   2.396 -0.5227  0.0699  2.2809
18073THY    CA542297   3.414   3.591   2.470  0.5553  0.2162  0.0683
18073THY    CM142298   3.440   3.627   2.615  0.3742  0.2748 -0.0363
18073THY    HM142299   3.418   3.733   2.632  0.6500 -0.6091  0.1676
18073THY    HM242300   3.543   3.622   2.652 -0.8027  4.2165  0.6340
18073THY    HM342301   3.371   3.565   2.673 -0.2739  1.4416  1.6682
18073THY    CA642302   3.287   3.546   2.435  0.0165 -0.1895  0.0549
18073THY    HA642303   3.223   3.522   2.520  1.5615  1.2599  0.8456
18074THY      O42304   4.979   5.237   4.186 -0.1798  0.4392 -0.3672
18074THY     HO42305   5.036   5.316   4.196  0.8843 -1.5928 -0.8157
18074THY    CA142306   5.029   5.178   4.074 -0.7425 -0.0766 -0.5088
18074THY    CA242307   4.946   5.145   3.963 -0.1391  0.6962 -0.3228
18074THY    CP142308   4.810   5.213   3.964  0.0131 -0.8174  1.0887
18074THY    HP142309   4.812   5.300   4.032  2.6095  1.1972 -0.3911
18074THY    CP242310   4.701   5.116   4.018  0.2707 -0.1270 -0.6595
18074THY    HP242311   4.611   5.178   4.030 -0.8128  0.8529 -2.3608
18074THY    HP342312   4.727   5.089   4.121 -0.8072 -0.1494 -1.8482
18074THY    HP442313   4.684   5.024   3.961 -1.1964  1.3771 -1.3688
18074THY    CP342314   4.763   5.259   3.832  0.0245  0.5868  0.2828
18074THY    HP542315   4.753   5.177   3.760 -0.0991 -0.8685  1.5093
18074THY    HP642316   4.822   5.339   3.784  2.3511 -0.6426 -2.0081
18074THY    HP742317   4.663   5.300   3.849 -1.3503 -3.0864 -1.1386
18074THY    CA342318   4.999   5.084   3.849  0.0657 -0.0425  0.6518
18074THY    HA342319   4.944   5.065   3.757  0.8542 -0.5810  0.9448
18074THY    CA442320   5.137   5.059   3.849 -0.0673 -0.4032 -0.4771
18074THY    HA442321   5.187   5.019   3.762 -0.1780 -1.4243  1.4852
18074THY    CA542322   5.219   5.096   3.954  0.4265 -0.3648  0.5405
18074THY    CM142323   5.361   5.057   3.941 -0.1478 -0.1650 -0.3898
18074THY    HM142324   5.394   4.995   4.025 -1.2203 -0.0598 -0.8331
18074THY    HM242325   5.413   5.152   3.955  0.6125  0.2051 -0.8490
18074THY    HM342326   5.393   5.011   3.847 -0.5941  0.5409 -2.2352
18074THY    CA642327   5.170   5.159   4.071  0.6570  0.2424  0.1546
18074THY    HA642328   5.241   5.181   4.151  0.2021  0.4840  0.7909
18075THY      O42329   5.320   3.798   2.994  0.2110  0.2616 -0.2736
18075THY     HO42330   5.266   3.779   3.074 -0.3848 -0.5084 -2.0806
18075THY    CA142331   5.447   3.804   3.040 -0.0852 -0.9948  0.1803
18075THY    CA242332   5.522   3.922   3.039 -0.1026 -0.1223 -0.1236
18075THY    CP142333   5.475   4.052   2.973  0.0860  0.5105  0.6446
18075THY    HP142334   5.373   4.037   2.935 -1.0616  2.9817  1.6757
18075THY    CP242335   5.567   4.094   2.853 -0.2273  0.3857  0.5900
18075THY    HP242336   5.665   4.129   2.885  0.2568 -0.3517 -0.0478
18075THY    HP342337   5.519   4.174   2.795 -3.0606  2.2742  0.4402
18075THY    HP442338   5.586   4.007   2.790  1.4663 -1.0635  1.9298
18075THY    CP342339   5.456   4.172   3.067 -0.0777  0.1250 -0.0222
18075THY    HP542340   5.556   4.203   3.099 -1.0090  2.6099  0.6176
18075THY    HP642341   5.392   4.149   3.152 -1.1527 -0.3953  0.9514
18075THY    HP742342   5.409   4.253   3.010  0.9581 -1.2542 -0.3415
18075THY    CA342343   5.651   3.921   3.086  0.5804 -0.1105 -1.0148
18075THY    HA342344   5.711   4.012   3.083 -2.0999  0.2177  0.8909
18075THY    CA442345   5.710   3.796   3.124  0.5705  0.2317 -0.3560
18075THY    HA442346   5.812   3.801   3.160 -0.0741  1.9708  2.8092
18075THY    CA542347   5.639   3.678   3.126 -0.0247  0.2881  0.0886
18075THY    CM142348   5.701   3.548   3.159  0.7107  0.9195 -0.6964
18075THY    HM142349   5.732   3.497   3.068 -2.5808 -0.5158 -0.3867
18075THY    HM242350   5.624   3.492   3.213  0.2239 -0.6368 -1.5654
18075THY    HM342351   5.795   3.555   3.216  0.6881  1.1129 -1.8451
18075THY    CA642352   5.501   3.687   3.095  0.1262 -0.2320 -0.0861
18075THY    HA642353   5.439   3.598   3.094  0.6912  0.4093 -0.4963
18076THY      O42354   7.860   4.185   6.659  0.3597  0.0254  0.3206
18076THY     HO42355   7.900   4.150   6.577  1.4881  0.2737  0.9802
18076THY    CA142356   7.927   4.302   6.667  0.5273 -0.2145  0.4246
18076THY    CA242357   7.921   4.383   6.773 -0.9961 -0.0892 -0.0156
18076THY    CP142358   7.823   4.349   6.883 -0.3118 -0.2496  0.9837
18076THY    HP142359   7.738   4.288   6.849  0.1276  1.1070 -0.4458
18076THY    CP242360   7.769   4.471   6.956  0.3524 -0.0714 -0.1765
18076THY    HP242361   7.745   4.552   6.885 -0.0723 -0.2385 -0.4457
18076THY    HP342362   7.840   4.505   7.032  0.2187  1.1740 -2.4817
18076THY    HP442363   7.676   4.433   6.998  0.7833 -0.0641 -1.2570
18076THY    CP342364   7.892   4.255   6.986  0.5884 -0.5349  0.2039
18076THY    HP542365   7.925   4.168   6.927 -1.4468 -1.7184  0.1571
18076THY    HP642366   7.825   4.218   7.065  1.0102 -1.3549 -2.5661
18076THY    HP742367   7.978   4.309   7.027 -0.6339 -0.9891  2.6317
18076THY    CA342368   8.010   4.490   6.791  0.1513  0.1405 -0.0392
18076THY    HA342369   7.996   4.553   6.878 -1.6069  2.7849 -3.7019
18076THY    CA442370   8.090   4.520   6.676 -0.4423 -0.5830  0.0838
18076THY    HA442371   8.153   4.609   6.674  2.0012 -0.6979 -1.5640
18076THY    CA542372   8.094   4.438   6.558  0.1883  0.2640 -0.2384
18076THY    CM142373   8.179   4.463   6.432 -0.2257  0.0591  0.4254
18076THY    HM142374   8.169   4.382   6.359  1.8486  1.3399 -1.0729
18076THY    HM242375   8.288   4.462   6.449  0.5267 -3.9157  0.3137
18076THY    HM342376   8.151   4.555   6.379  0.0932  0.3142  0.6772
18076THY    CA642377   8.015   4.320   6.559 -0.1158  0.2752  0.4657
18076THY    HA642378   8.014   4.255   6.472  0.9432 -0.2703  1.1528
18077THY      O42379   3.979   1.900   5.352 -0.3264  0.9290 -0.0044
18077THY     HO42380   3.884   1.899   5.334 -0.5089  0.9489  3.5579
18077THY    CA142381   4.042   1.926   5.236  0.4972  0.2016  0.5255
18077THY    CA242382   4.161   2.002   5.238  0.1137  0.3888  0.1322
18077THY    CP142383   4.231   2.034   5.365  0.0916 -0.3318  0.6291
18077THY    HP142384   4.168   2.023   5.454 -1.9254 -1.6701  0.8140
18077THY    CP242385   4.279   2.183   5.374 -0.0562 -0.5785 -0.0119
18077THY    HP242386   4.344   2.198   5.461  2.1411 -1.6259 -2.6696
18077THY    HP342387   4.190   2.244   5.389 -1.3081 -1.0076 -1.6679
18077THY    HP442388   4.327   2.224   5.284 -0.8513 -0.4824  1.1911
18077THY    CP342389   4.367   1.956   5.373  0.2066  0.2453 -0.3476
18077THY    HP542390   4.453   1.976   5.308 -1.2070 -1.7302 -0.3989
18077THY    HP642391   4.344   1.850   5.390 -0.8635  1.5415  0.0627
18077THY    HP742392   4.400   1.977   5.476 -0.6234  0.4036  0.2376
18077THY    CA342393   4.211   2.048   5.115  0.2880 -0.1537 -0.2342
18077THY    HA342394   4.303   2.106   5.108 -0.3352  1.7974  1.1139
18077THY    CA442395   4.146   2.014   4.992  0.2998  0.1260  0.1558
18077THY    HA442396   4.192   2.032   4.896  2.7337  0.6557 -2.5556
18077THY    CA542397   4.025   1.939   4.996  0.1479  0.4954 -0.5871
18077THY    CM142398   3.953   1.914   4.869  0.8542 -0.0898  0.3265
18077THY    HM142399   3.846   1.920   4.889  0.6632 -0.6495 -0.8326
18077THY    HM242400   3.951   1.809   4.837 -2.6253 -1.3913  0.6508
18077THY    HM342401   3.991   1.969   4.782  3.0285  0.6531  0.1239
18077THY    CA642402   3.969   1.899   5.117  0.3215 -0.0015 -0.0177
18077THY    HA642403   3.880   1.837   5.115  0.2055 -2.5636  0.1295
18078THY      O42404   6.841   3.069   3.320 -0.2258 -0.0452  0.2293
18078THY     HO42405   6.840   2.978   3.354 -1.1218  0.3734  0.3838
18078THY    CA142406   6.914   3.142   3.407 -0.0012 -0.0129  0.4782
18078THY    CA242407   6.993   3.247   3.364  0.1726  0.7286  0.7365
18078THY    CP142408   6.998   3.276   3.217  0.0557 -0.0801 -0.5105
18078THY    HP142409   6.908   3.242   3.164  0.9587 -1.1303 -1.3165
18078THY    CP242410   7.113   3.205   3.156 -0.7480  0.1227 -0.2987
18078THY    HP242411   7.207   3.251   3.189 -0.8549 -1.8168  1.4409
18078THY    HP342412   7.108   3.215   3.047 -0.8114  0.3098  2.4262
18078THY    HP442413   7.115   3.103   3.196 -1.4061 -1.1038 -0.8124
18078THY    CP342414   7.017   3.424   3.184 -0.0288  0.2984 -0.5446
18078THY    HP542415   6.934   3.485   3.222  0.2004  1.5082 -0.9697
18078THY    HP642416   7.018   3.438   3.075 -0.5040  0.2938 -0.5294
18078THY    HP742417   7.108   3.465   3.228  0.7515  0.0728 -1.9834
18078THY    CA342418   7.079   3.307   3.461  0.6878  0.4394  0.2563
18078THY    HA342419   7.153   3.380   3.428  2.4339  2.9289 -0.2654
18078THY    CA442420   7.067   3.276   3.597  0.4681  0.7434  0.2099
18078THY    HA442421   7.123   3.333   3.670  2.6922  0.2502 -1.2278
18078THY    CA542422   6.968   3.182   3.633  0.1409 -0.3954 -0.2997
18078THY    CM142423   6.932   3.167   3.777 -0.2168 -0.4426 -0.2011
18078THY    HM142424   7.023   3.166   3.837  1.3584 -2.7010  0.0061
18078THY    HM242425   6.861   3.083   3.786 -2.4359 -1.3602  1.4689
18078THY    HM342426   6.875   3.254   3.811 -1.1174 -1.4547 -0.3825
18078THY    CA642427   6.899   3.111   3.540 -0.7151 -0.3123  0.0069
18078THY    HA642428   6.839   3.031   3.583 -0.7849  1.3210  0.8842
18079THY      O42429   7.349   4.291   3.141  0.1150 -0.3947  0.6910
18079THY     HO42430   7.365   4.204   3.184  0.8775  1.2814  1.6086
18079THY    CA142431   7.323   4.269   3.011  0.0070 -0.1676  0.1053
18079THY    CA242432   7.253   4.368   2.943  0.8496 -0.6039  0.0206
18079THY    CP142433   7.188   4.491   3.015 -0.3662  0.0756 -0.7024
18079THY    HP142434   7.236   4.519   3.110  2.4313 -1.8709  1.8397
18079THY    CP242435   7.039   4.460   3.039 -0.4716  0.4266 -0.1192
18079THY    HP242436   6.997   4.550   3.087  0.1782 -1.6571  1.3629
18079THY    HP342437   7.039   4.372   3.104  1.3713 -0.2824 -0.6774
18079THY    HP442438   6.975   4.454   2.950 -0.1658 -0.1766  3.2417
18079THY    CP342439   7.200   4.623   2.925 -0.2799 -0.1258  0.1607
18079THY    HP542440   7.120   4.629   2.850 -0.3572 -0.1352 -0.8838
18079THY    HP642441   7.301   4.637   2.886  0.1219  0.6933 -0.3947
18079THY    HP742442   7.182   4.715   2.982  1.2828  0.3328  0.2109
18079THY    CA342443   7.221   4.348   2.805  0.1243 -0.1398  1.5457
18079THY    HA342444   7.162   4.418   2.747  1.7040 -0.3707  2.7351
18079THY    CA442445   7.268   4.230   2.737  0.4365  0.2433 -0.6735
18079THY    HA442446   7.230   4.208   2.638  1.8887 -1.1245  2.3635
18079THY    CA542447   7.342   4.134   2.809  0.4316  0.0612  0.4594
18079THY    CM142448   7.395   4.010   2.742  0.0771 -0.3285 -0.2899
18079THY    HM142449   7.326   3.936   2.785 -0.8104 -2.8957 -1.0694
18079THY    HM242450   7.500   4.003   2.774 -0.4660  1.4707 -0.8440
18079THY    HM342451   7.386   4.012   2.633 -1.6200 -0.2002  1.5082
18079THY    CA642452   7.373   4.156   2.945  0.2064 -0.0081 -0.5573
18079THY    HA642453   7.427   4.080   3.001 -0.0307  1.8230  0.5716
18080THY      O42454   4.302   4.590   5.157 -0.4828 -0.1253  0.0747
18080THY     HO42455   4.236   4.525   5.128  1.3411 -0.1025 -1.8982
18080THY    CA142456   4.387   4.592   5.053  0.2185 -0.0495 -0.0778
18080THY    CA242457   4.476   4.699   5.025  0.4565  1.0824  0.4764
18080THY    CP142458   4.475   4.815   5.118 -0.7615 -0.2998 -0.7398
18080THY    HP142459   4.432   4.793   5.216  0.7240  0.2125 -1.5211
18080THY    CP242460   4.406   4.944   5.065 -0.7604 -0.2427 -0.3893
18080THY    HP242461   4.424   4.971   4.960 -2.7425 -0.2123  1.3221
18080THY    HP342462   4.430   5.033   5.124 -1.3117 -1.3829  0.5419
18080THY    HP442463   4.298   4.930   5.079 -0.5771 -0.1498 -1.8084
18080THY    CP342464   4.616   4.854   5.158 -0.9736 -0.2018 -0.0471
18080THY    HP542465   4.692   4.865   5.079  2.0009  2.2815 -1.1855
18080THY    HP642466   4.655   4.775   5.222  0.7773 -1.0976  0.0444
18080THY    HP742467   4.619   4.947   5.216 -2.4697  0.7763 -0.5701
18080THY    CA342468   4.544   4.692   4.903  0.4947  0.1822  0.4582
18080THY    HA342469   4.602   4.779   4.872  1.4188 -0.6036 -0.4136
18080THY    CA442470   4.547   4.577   4.820  0.1033 -0.2472  0.1338
18080THY    HA442471   4.620   4.570   4.740  0.3051 -0.0437 -0.1157
18080THY    CA542472   4.461   4.471   4.854 -0.3563 -0.2425 -0.6642
18080THY    CM142473   4.459   4.340   4.784 -0.3877  0.0329  0.8810
18080THY    HM142474   4.359   4.296   4.784  0.0962  1.4518 -0.3249
18080THY    HM242475   4.521   4.261   4.827 -0.6616 -2.0493 -0.5353
18080THY    HM342476   4.479   4.348   4.677  0.9057  0.2058  0.3073
18080THY    CA642477   4.378   4.486   4.963  0.4414 -0.4884 -0.4261
18080THY    HA642478   4.319   4.396   4.984  2.2451 -1.9245 -2.0267
18081THY      O42479   7.935   4.022   6.432  0.2802  0.4500  0.2218
18081THY     HO42480   8.002   3.973   6.484 -0.1778  0.1068 -0.7920
18081THY    CA142481   7.912   3.952   6.328  0.0695 -0.1238  0.0068
18081THY    CA242482   7.832   3.996   6.226  0.9113 -0.5522 -0.1156
18081THY    CP142483   7.755   4.128   6.244 -0.1482 -0.1291  0.0372
18081THY    HP142484   7.751   4.151   6.351 -2.1222  0.1456 -1.2869
18081THY    CP242485   7.611   4.120   6.204  0.4498 -0.3274  0.3144
18081THY    HP242486   7.601   4.116   6.095  1.1435 -0.3923  0.1133
18081THY    HP342487   7.560   4.213   6.231  0.5837  0.9456  0.0289
18081THY    HP442488   7.575   4.027   6.250  0.4779 -0.5030  0.2156
18081THY    CP342489   7.822   4.236   6.163 -0.2070 -0.0588  0.0931
18081THY    HP542490   7.829   4.199   6.061 -0.5175 -0.1855  0.3823
18081THY    HP642491   7.919   4.245   6.215 -1.8584  3.1290  1.1953
18081THY    HP742492   7.780   4.335   6.184  0.6398  1.1913  0.2253
18081THY    CA342493   7.806   3.920   6.111 -0.1441 -0.8678 -0.0738
18081THY    HA342494   7.736   3.954   6.035  1.6544 -2.6288 -0.1779
18081THY    CA442495   7.871   3.801   6.100 -0.8208 -0.4874  0.3743
18081THY    HA442496   7.862   3.738   6.012  3.2183  0.1831 -1.4595
18081THY    CA542497   7.955   3.754   6.203  0.2601  0.2691 -0.0767
18081THY    CM142498   8.034   3.627   6.193 -0.7833 -0.4087  0.8769
18081THY    HM142499   8.128   3.619   6.248 -1.7768  1.1179 -1.1285
18081THY    HM242500   8.055   3.618   6.085 -0.1005 -0.2343  0.3055
18081THY    HM342501   7.978   3.539   6.228 -0.7491 -1.6883  0.3211
18081THY    CA642502   7.975   3.831   6.317 -0.6606  0.5113 -0.5152
18081THY    HA642503   8.039   3.798   6.398  1.9555 -1.1985  0.1238
18082THY      O42504   9.003   7.244   3.362 -1.0035  0.1090  0.2788
18082THY     HO42505   8.978   7.338   3.365  0.5771  0.6342  0.7131
18082THY    CA142506   9.137   7.236   3.382  0.4244 -0.1136 -0.2989
18082THY    CA242507   9.205   7.115   3.391 -0.1244  0.1535  0.4233
18082THY    CP142508   9.127   6.980   3.396  0.0173  0.2526  0.9228
18082THY    HP142509   9.032   6.988   3.342  0.1180 -0.5292 -2.0768
18082THY    CP242510   9.092   6.934   3.539 -0.2830  0.2542 -0.3776
18082THY    HP242511   9.032   7.007   3.595 -2.1450 -1.2222 -0.6801
18082THY    HP342512   9.182   6.912   3.597 -1.7988  2.0777 -2.2051
18082THY    HP442513   9.034   6.842   3.527 -0.3147 -1.3087 -0.1727
18082THY    CP342514   9.199   6.861   3.321  0.1393 -0.3341 -0.5544
18082THY    HP542515   9.206   6.888   3.215 -1.3308 -0.6901 -1.4735
18082THY    HP642516   9.134   6.773   3.322  1.4141 -1.9361 -1.5641
18082THY    HP742517   9.298   6.842   3.363  0.4369 -0.9752 -0.4426
18082THY    CA342518   9.342   7.113   3.398  0.4810 -0.2131 -0.0782
18082THY    HA342519   9.400   7.022   3.397  1.4306 -2.1161  0.4826
18082THY    CA442520   9.407   7.238   3.407 -0.2929 -0.8106 -0.4360
18082THY    HA442521   9.515   7.241   3.414 -0.3940  0.6938  0.3923
18082THY    CA542522   9.333   7.355   3.412 -0.0491  0.1836 -0.0176
18082THY    CM142523   9.397   7.485   3.431  0.1162  0.7202 -0.4414
18082THY    HM142524   9.322   7.564   3.417 -1.5127  0.2196 -1.9892
18082THY    HM242525   9.474   7.496   3.354 -0.6678 -0.1092 -0.6466
18082THY    HM342526   9.435   7.496   3.533  0.9313  0.1862  2.4653
18082THY    CA642527   9.198   7.354   3.396 -0.0286 -0.7215  1.0708
18082THY    HA642528   9.135   7.442   3.386  0.7649  3.6985  2.4118
18083THY      O42529   6.497   9.007   6.713  0.3223  0.4946 -0.0273
18083THY     HO42530   6.524   9.099   6.698 -0.1645  0.0216  0.0456
18083THY    CA142531   6.489   8.986   6.848  0.3334  0.4044  0.6584
18083THY    CA242532   6.473   8.852   6.897  0.4655 -0.6325  0.3510
18083THY    CP142533   6.484   8.732   6.801 -0.5935  0.1426 -0.0079
18083THY    HP142534   6.419   8.755   6.715 -0.7492  0.0018 -0.9321
18083THY    CP242535   6.441   8.595   6.864 -1.0256 -0.0345 -0.4269
18083THY    HP242536   6.514   8.571   6.942  1.1935 -0.8499  3.0179
18083THY    HP342537   6.442   8.516   6.788 -1.8765 -0.0662 -0.4168
18083THY    HP442538   6.340   8.611   6.905  0.9670  4.8806  1.7412
18083THY    CP342539   6.626   8.718   6.740 -0.4761 -0.1362 -0.3298
18083THY    HP542540   6.617   8.648   6.657 -0.3725  0.5178 -1.1317
18083THY    HP642541   6.701   8.678   6.809 -0.6680 -0.1755 -0.7672
18083THY    HP742542   6.681   8.803   6.698  1.0465 -2.1784 -2.2176
18083THY    CA342543   6.448   8.834   7.042 -0.3243  0.6542  0.4577
18083THY    HA342544   6.442   8.736   7.088 -2.0173 -1.2187 -0.3959
18083THY    CA442545   6.446   8.945   7.125 -0.1017 -0.1182 -0.1754
18083THY    HA442546   6.446   8.928   7.232  1.2789 -0.0762 -0.0097
18083THY    CA542547   6.475   9.073   7.073  0.1163  0.5003 -0.1739
18083THY    CM142548   6.482   9.181   7.183  0.2531 -0.1616 -0.0870
18083THY    HM142549   6.525   9.146   7.277  2.9236 -1.2242  0.1580
18083THY    HM242550   6.386   9.233   7.197 -0.2788  0.7151 -1.2710
18083THY    HM342551   6.553   9.255   7.144  0.5225 -0.2754 -0.4083
18083THY    CA642552   6.487   9.093   6.936 -0.3691 -0.1787 -1.1847
18083THY    HA642553   6.491   9.197   6.907 -1.7587 -1.1642 -1.3791
18084THY      O42554   3.019   4.130   5.735 -0.3940  0.3025  0.2177
18084THY     HO42555   2.987   4.207   5.684  0.3803 -0.0008  0.3485
18084THY    CA142556   2.926   4.094   5.824  0.2281  0.3229 -0.3254
18084THY    CA242557   2.936   3.986   5.914  0.2079 -0.3315  0.1300
18084THY    CP142558   3.071   3.910   5.911 -0.0461  0.0420 -0.1322
18084THY    HP142559   3.137   3.945   5.831 -0.0244  0.5214  0.9780
18084THY    CP242560   3.062   3.761   5.879 -0.1833 -0.5501 -0.0124
18084THY    HP242561   3.014   3.750   5.780  0.1342 -0.9409  1.8461
18084THY    HP342562   3.003   3.708   5.954  3.1103  1.9308 -0.4693
18084THY    HP442563   3.163   3.721   5.890 -0.0485 -2.0495 -0.1477
18084THY    CP342564   3.142   3.934   6.041  0.8335  0.2464 -0.4381
18084THY    HP542565   3.082   3.885   6.119  0.7830  0.2036 -0.4441
18084THY    HP642566   3.141   4.039   6.072  0.9648 -1.0976 -0.0296
18084THY    HP742567   3.247   3.901   6.046  0.5929  0.5682 -1.1988
18084THY    CA342568   2.829   3.948   6.005 -0.3295  0.2496 -0.0921
18084THY    HA342569   2.836   3.865   6.074 -1.6239  0.3148 -0.1758
18084THY    CA442570   2.717   4.028   6.005 -0.2640  0.4143 -0.8584
18084THY    HA442571   2.630   3.999   6.063  0.2343  0.5633 -2.1037
18084THY    CA542572   2.698   4.132   5.908 -0.5672  0.2535  0.1829
18084THY    CM142573   2.559   4.202   5.895 -0.1175  0.0141 -0.0158
18084THY    HM142574   2.523   4.169   5.797 -0.4806 -0.6351  2.1264
18084THY    HM242575   2.563   4.312   5.889 -0.2594 -0.2626 -0.0250
18084THY    HM342576   2.485   4.169   5.969 -0.3418 -0.6643 -1.0739
18084THY    CA642577   2.808   4.166   5.826  0.3846  0.4353  0.5170
18084THY    HA642578   2.786   4.242   5.751 -0.8555 -1.3936 -1.4966
18085THY      O42579   3.739   7.957   4.019  0.3020  0.0068 -0.6710
18085THY     HO42580   3.729   7.926   4.110 -1.2135  0.8930  2.0702
18085THY    CA142581   3.608   7.960   3.970 -0.5971  0.1826  0.2505
18085THY    CA242582   3.555   8.079   3.928 -0.2398  0.0299 -1.5384
18085THY    CP142583   3.632   8.210   3.926 -0.2912 -0.2169  0.4891
18085THY    HP142584   3.739   8.186   3.924 -0.5621 -2.0325 -0.7582
18085THY    CP242585   3.614   8.279   4.060 -0.5294 -0.8305 -0.1019
18085THY    HP242586   3.637   8.209   4.141  1.2161 -0.0321  1.3058
18085THY    HP342587   3.511   8.315   4.070 -1.4199 -0.3216 -2.6008
18085THY    HP442588   3.684   8.363   4.066 -2.0765 -1.0323  1.2413
18085THY    CP342589   3.596   8.310   3.816 -0.2135 -0.5438  0.2829
18085THY    HP542590   3.673   8.388   3.820  1.5894  3.1501 -1.4577
18085THY    HP642591   3.491   8.341   3.825  0.0903  2.8380  0.7099
18085THY    HP742592   3.614   8.261   3.719 -0.6079 -0.9275  0.8787
18085THY    CA342593   3.417   8.074   3.888  0.3760  0.2633  0.1346
18085THY    HA342594   3.363   8.161   3.850  1.4038  0.8699  1.0594
18085THY    CA442595   3.347   7.954   3.893  0.9081  0.0832  0.6301
18085THY    HA442596   3.244   7.955   3.858  1.1346 -0.6017  0.2808
18085THY    CA542597   3.406   7.830   3.937 -0.8725 -1.3868 -0.5067
18085THY    CM142598   3.324   7.709   3.961 -0.5046  0.4125 -0.2548
18085THY    HM142599   3.224   7.722   3.918 -0.1723  0.0931  1.3469
18085THY    HM242600   3.312   7.673   4.064 -0.7886  0.8169  0.9486
18085THY    HM342601   3.357   7.625   3.899 -0.1851 -1.5909  1.2945
18085THY    CA642602   3.540   7.838   3.978 -0.0682 -0.3104  0.2962
18085THY    HA642603   3.602   7.753   4.006 -0.8840  0.2485 -0.1297
18086THY      O42604   4.449   2.481   2.505 -0.2219 -0.1366  0.4758
18086THY     HO42605   4.490   2.403   2.546 -2.2373  0.5607 -0.2919
18086THY    CA142606   4.531   2.564   2.457 -0.3374 -0.4102  0.3318
18086THY    CA242607   4.529   2.602   2.315  0.9246 -0.3893  0.1491
18086THY    CP142608   4.426   2.552   2.214  0.1589  0.3457  0.2031
18086THY    HP142609   4.332   2.529   2.267 -0.5331 -1.3978 -1.2266
18086THY    CP242610   4.472   2.418   2.147  0.0532 -0.8756  0.3690
18086THY    HP242611   4.397   2.390   2.072 -0.7699 -0.7254  2.0069
18086THY    HP342612   4.473   2.343   2.227 -0.4194  0.8302  2.0916
18086THY    HP442613   4.571   2.423   2.102  0.3367 -0.3640 -0.4965
18086THY    CP342614   4.394   2.657   2.102  0.1063 -0.1207  0.0528
18086THY    HP542615   4.398   2.760   2.139  0.9366  0.0374 -0.0270
18086THY    HP642616   4.297   2.647   2.052  0.3321 -1.0445  2.0326
18086THY    HP742617   4.477   2.648   2.031 -0.7336 -1.4188  2.0205
18086THY    CA342618   4.634   2.686   2.273 -0.4715 -0.1717  0.1459
18086THY    HA342619   4.662   2.708   2.171 -0.5483 -0.5198 -1.2456
18086THY    CA442620   4.728   2.730   2.363  0.6726  0.3419 -0.4473
18086THY    HA442621   4.802   2.801   2.327  1.6410  1.1291 -1.0368
18086THY    CA542622   4.737   2.688   2.497  0.2749 -0.1025  0.0999
18086THY    CM142623   4.845   2.735   2.595  0.1760 -0.5931  0.4446
18086THY    HM142624   4.920   2.788   2.535 -0.4059  0.5668  2.6941
18086THY    HM242625   4.895   2.650   2.643  1.7565  0.2337  1.7975
18086THY    HM342626   4.805   2.789   2.682  1.2053  0.3590 -0.2986
18086THY    CA642627   4.639   2.602   2.543  0.3849  0.3281 -0.4318
18086THY    HA642628   4.634   2.577   2.649 -1.6337  0.6523  1.0377
18087THY      O42629   1.710   8.187   4.659  0.5612  0.2113  0.3160
18087THY     HO42630   1.619   8.219   4.647  0.1024  1.5722 -0.4126
18087THY    CA142631   1.791   8.274   4.597  0.1076 -1.0233 -0.3417
18087THY    CA242632   1.929   8.251   4.595  0.4420  0.0355  0.5948
18087THY    CP142633   1.997   8.121   4.643  0.0689 -0.1447 -0.3046
18087THY    HP142634   1.931   8.073   4.716  1.0257  1.0288  0.1219
18087THY    CP242635   2.128   8.154   4.725  0.5120  0.7130 -0.8008
18087THY    HP242636   2.209   8.180   4.656  0.0972 -0.1657 -1.7521
18087THY    HP342637   2.158   8.057   4.767 -2.3596 -1.4316 -2.8196
18087THY    HP442638   2.113   8.223   4.809  0.1173 -1.5299  2.0405
18087THY    CP342639   2.031   8.024   4.521 -0.3950 -0.1072  0.1971
18087THY    HP542640   2.073   7.930   4.560 -3.0344 -0.3479 -1.1706
18087THY    HP642641   2.096   8.065   4.443  0.3449  0.0897 -0.5736
18087THY    HP742642   1.943   7.990   4.465 -0.2923 -0.0403 -0.1876
18087THY    CA342643   2.007   8.358   4.543 -0.9158  0.8379 -0.3101
18087THY    HA342644   2.115   8.350   4.542 -0.9166  0.2179 -0.2856
18087THY    CA442645   1.949   8.474   4.488 -0.4515 -0.5055 -0.5485
18087THY    HA442646   2.013   8.552   4.446  3.5080  2.8115 -1.6835
18087THY    CA542647   1.809   8.489   4.485 -0.6434  0.7008  0.2177
18087THY    CM142648   1.743   8.612   4.422  0.2877 -0.2019 -0.2847
18087THY    HM142649   1.676   8.587   4.339  0.2002 -0.6462  1.3192
18087THY    HM242650   1.819   8.687   4.401  1.9781  4.1291 -0.4923
18087THY    HM342651   1.678   8.652   4.501  0.2270  0.4101 -1.5350
18087THY    CA642652   1.735   8.386   4.541 -0.4497 -0.2187  0.1111
18087THY    HA642653   1.627   8.402   4.546 -0.3923  0.9127  0.1927
18088THY      O42654   8.912   7.332   6.155  0.0235 -0.0412  0.0479
18088THY     HO42655   8.891   7.263   6.220 -0.4060  0.8241  0.9643
18088THY    CA142656   8.858   7.289   6.043 -0.1763 -0.4761  0.2764
18088THY    CA242657   8.899   7.335   5.911  0.5464  0.4437 -0.4784
18088THY    CP142658   9.010   7.442   5.884  0.3068 -1.2635 -0.3511
18088THY    HP142659   9.063   7.469   5.977  1.0642 -2.0143  0.8226
18088THY    CP242660   8.952   7.576   5.829 -0.4265  0.3600 -0.1554
18088THY    HP242661   8.981   7.587   5.724  0.8699  0.6343 -0.7696
18088THY    HP342662   9.001   7.661   5.878 -0.7889  0.7087 -0.1433
18088THY    HP442663   8.843   7.569   5.834 -0.2943  1.6918 -1.7953
18088THY    CP342664   9.125   7.404   5.791 -0.3086  0.5559  0.2918
18088THY    HP542665   9.089   7.353   5.702 -1.4540 -0.1019  2.1422
18088THY    HP642666   9.188   7.342   5.857  1.6676 -0.4896  1.0761
18088THY    HP742667   9.191   7.490   5.772  0.6886 -1.4823 -0.8480
18088THY    CA342668   8.835   7.284   5.802  0.4385  0.1994  0.6988
18088THY    HA342669   8.855   7.325   5.703 -0.7222 -0.5764 -0.5075
18088THY    CA442670   8.735   7.186   5.814 -0.1978 -0.5160 -0.4564
18088THY    HA442671   8.694   7.148   5.721  0.8169 -0.7566 -1.0081
18088THY    CA542672   8.689   7.144   5.933  0.6425 -0.8303  0.4647
18088THY    CM142673   8.570   7.060   5.940  0.5490 -0.3557 -0.0012
18088THY    HM142674   8.518   7.064   6.036  0.6277 -0.2029 -1.7815
18088THY    HM242675   8.597   6.957   5.914 -0.0788 -0.2655 -0.1952
18088THY    HM342676   8.500   7.089   5.860  2.1546 -1.9272 -0.2747
18088THY    CA642677   8.759   7.189   6.051  0.0809 -0.5041  0.3832
18088THY    HA642678   8.727   7.145   6.145 -0.2509 -0.6018  0.4193
18089THY      O42679   5.249   6.973   1.928  0.6908 -0.7883  0.6292
18089THY     HO42680   5.302   7.048   1.959 -0.1660 -0.3486  1.0713
18089THY    CA142681   5.213   6.905   2.042  0.3762  0.0662  0.5836
18089THY    CA242682   5.170   6.769   2.035  0.5296  0.1806 -0.0835
18089THY    CP142683   5.166   6.696   1.898  0.0966  0.6958 -0.0742
18089THY    HP142684   5.159   6.763   1.810 -1.3750 -0.8420 -2.1219
18089THY    CP242685   5.043   6.609   1.881 -0.8546 -0.0869  0.1861
18089THY    HP242686   5.031   6.548   1.790 -0.6419  1.1537 -1.7948
18089THY    HP342687   4.956   6.675   1.893 -0.0681 -2.2230  1.7416
18089THY    HP442688   5.056   6.535   1.961  1.7273  0.9270  1.5994
18089THY    CP342689   5.293   6.618   1.875 -0.0730  0.1931  0.4623
18089THY    HP542690   5.299   6.530   1.939  0.0119  0.5106  0.6948
18089THY    HP642691   5.393   6.663   1.879 -0.1288  0.3120  0.5795
18089THY    HP742692   5.278   6.575   1.776  0.6363  0.0795  0.4638
18089THY    CA342693   5.135   6.705   2.159 -0.3633  0.0783  0.5062
18089THY    HA342694   5.100   6.602   2.162 -0.3216 -0.8711  0.4563
18089THY    CA442695   5.132   6.787   2.272 -0.3834 -0.1215 -0.1026
18089THY    HA442696   5.112   6.739   2.367  0.2442 -1.1987 -2.6841
18089THY    CA542697   5.190   6.913   2.284  0.6643  0.6501 -1.2034
18089THY    CM142698   5.222   6.972   2.413  0.3238  0.2418 -0.1379
18089THY    HM142699   5.204   6.902   2.496  1.0672 -1.0009 -1.8867
18089THY    HM242700   5.156   7.055   2.439 -0.0522  1.0220 -0.6665
18089THY    HM342701   5.327   7.001   2.402  0.0961 -0.9475  0.2820
18089THY    CA642702   5.227   6.976   2.165  0.4308 -0.4807  1.1489
18089THY    HA642703   5.270   7.075   2.158  0.1847 -1.3719  1.1957
18090THY      O42704   1.869   8.198   4.285 -0.1076 -0.4397 -0.5834
18090THY     HO42705   1.904   8.234   4.368  2.2866 -1.0893 -1.1898
18090THY    CA142706   1.982   8.154   4.222 -0.5881 -0.2545 -0.5805
18090THY    CA242707   1.984   8.026   4.166  1.0955  0.3417 -0.2467
18090THY    CP142708   1.853   7.951   4.140  0.5131 -0.4055 -0.3454
18090THY    HP142709   1.767   8.017   4.153  0.8009 -0.0194 -0.0434
18090THY    CP242710   1.838   7.831   4.222  0.4453 -0.4525  0.3572
18090THY    HP242711   1.855   7.842   4.330 -3.6902  0.9349 -3.8078
18090THY    HP342712   1.900   7.748   4.187  0.1360 -2.6675  0.9963
18090THY    HP442713   1.730   7.812   4.225  0.4401  0.9497  0.5260
18090THY    CP342714   1.826   7.915   3.987 -0.1220  0.6032  0.0726
18090THY    HP542715   1.732   7.861   3.976 -0.6715  2.5633  0.5606
18090THY    HP642716   1.908   7.846   3.962 -0.1658  0.3249  0.1196
18090THY    HP742717   1.817   8.001   3.919  1.0997  0.1819 -0.1082
18090THY    CA342718   2.112   7.977   4.118  0.1852  0.2177 -0.7245
18090THY    HA342719   2.116   7.880   4.069  0.9093 -1.4892  0.1131
18090THY    CA442720   2.222   8.066   4.113 -0.1856  0.5919  0.6575
18090THY    HA442721   2.319   8.031   4.078 -1.2857 -0.5678 -1.3952
18090THY    CA542722   2.215   8.186   4.185  0.4767 -0.2234  0.5214
18090THY    CM142723   2.338   8.266   4.208  0.2672 -0.1036 -0.6681
18090THY    HM142724   2.372   8.309   4.113  3.4933  0.9270 -0.6811
18090THY    HM242725   2.423   8.209   4.247  2.0303 -1.5271  0.8439
18090THY    HM342726   2.308   8.346   4.277  1.1853  1.0132 -1.2600
18090THY    CA642727   2.095   8.232   4.229  0.4055 -0.1798  0.5619
18090THY    HA642728   2.088   8.330   4.275  1.8893 -0.4555  0.8256
18091THY      O42729   7.239   7.920   5.117  0.1264 -0.0979  0.4711
18091THY     HO42730   7.321   7.894   5.162 -0.6948  1.0186 -0.2936
18091THY    CA142731   7.140   7.932   5.212 -0.1481 -0.1959  0.8417
18091THY    CA242732   7.007   7.964   5.183 -0.1063  0.6282 -0.0144
18091THY    CP142733   6.964   7.978   5.029  0.0960 -0.3914  0.1913
18091THY    HP142734   7.039   8.015   4.958 -0.3132  0.0033  1.8498
18091THY    CP242735   6.837   8.062   5.009  0.3440  0.2304  0.6172
18091THY    HP242736   6.823   8.081   4.901  0.3299  0.3642  1.4139
18091THY    HP342737   6.835   8.160   5.057  1.3877  0.3184  0.6117
18091THY    HP442738   6.750   8.010   5.050 -0.0248  2.8709  3.0814
18091THY    CP342739   6.924   7.835   4.990 -0.0536  0.2060 -0.2688
18091THY    HP542740   6.876   7.785   5.075  3.3740  3.5541  1.5553
18091THY    HP642741   7.019   7.782   4.974  0.8162  1.0548  0.9565
18091THY    HP742742   6.871   7.839   4.895  1.8418 -0.8791  2.8631
18091THY    CA342743   6.922   7.992   5.289  0.3188 -0.4815  0.0166
18091THY    HA342744   6.819   8.017   5.265  0.2467  1.0702  1.3767
18091THY    CA442745   6.960   7.990   5.420  0.5556 -0.0612 -0.5713
18091THY    HA442746   6.879   8.006   5.491  0.0185 -1.0094  1.1930
18091THY    CA542747   7.096   7.965   5.447  0.3121  0.9550 -0.5196
18091THY    CM142748   7.142   7.960   5.586 -0.3535  0.5543 -0.3721
18091THY    HM142749   7.075   7.909   5.655  1.2384  1.1128 -1.7946
18091THY    HM242750   7.145   8.065   5.620  1.0098 -0.0887 -0.1778
18091THY    HM342751   7.240   7.912   5.599  0.1067 -0.4209  0.2700
18091THY    CA642752   7.188   7.936   5.344 -0.3083 -0.2252 -0.0535
18091THY    HA642753   7.291   7.919   5.374 -0.4944 -0.1043 -1.0624
18092THY      O42754   5.457   5.187   5.371  0.4135 -0.2106  0.4732
18092THY     HO42755   5.366   5.220   5.362 -0.0550  0.3381 -0.6237
18092THY    CA142756   5.534   5.227   5.264  0.0382 -0.3239 -0.1103
18092THY    CA242757   5.655   5.303   5.272 -0.0791  0.3680  0.0380
18092THY    CP142758   5.709   5.340   5.407  0.2822  0.6946  0.4517
18092THY    HP142759   5.662   5.266   5.473 -0.4356 -1.3777 -1.0581
18092THY    CP242760   5.644   5.468   5.450 -0.1743 -0.0248 -0.0001
18092THY    HP242761   5.690   5.547   5.390  1.3442 -1.8794 -2.1396
18092THY    HP342762   5.674   5.485   5.554 -1.4605  0.7126 -1.8359
18092THY    HP442763   5.535   5.460   5.459 -0.1796 -1.3602 -3.1239
18092THY    CP342764   5.867   5.329   5.421  0.0585  0.2401  0.1492
18092THY    HP542765   5.881   5.334   5.529  1.3740  0.0316  2.2361
18092THY    HP642766   5.921   5.414   5.377  0.7991  0.3714 -0.2466
18092THY    HP742767   5.908   5.242   5.368  0.4999 -0.8086  0.9666
18092THY    CA342768   5.716   5.354   5.155 -0.5145  0.5602  0.6518
18092THY    HA342769   5.790   5.432   5.172 -0.2634  1.1908  0.2842
18092THY    CA442770   5.662   5.310   5.032 -0.1644  0.4066 -0.6762
18092THY    HA442771   5.704   5.332   4.935 -0.2581  0.0005 -2.1772
18092THY    CA542772   5.551   5.223   5.027 -0.2211  0.4550  0.7678
18092THY    CM142773   5.500   5.165   4.896 -0.0627 -0.8772 -0.0112
18092THY    HM142774   5.524   5.058   4.886 -0.1269 -2.2012  0.0814
18092THY    HM242775   5.538   5.222   4.811  0.4531  0.0566  1.0645
18092THY    HM342776   5.390   5.165   4.891 -0.1609  0.2528 -1.7083
18092THY    CA642777   5.482   5.191   5.141  0.5054  0.7501 -0.0504
18092THY    HA642778   5.391   5.133   5.136  0.3301  0.0862  0.2726
18093THY      O42779   9.087   1.365   4.816  0.1292  0.3906  0.0866
18093THY     HO42780   9.091   1.281   4.767 -0.4214  1.2972 -0.4720
18093THY    CA142781   8.987   1.348   4.905  0.7448 -0.4828  0.1156
18093THY    CA242782   8.944   1.442   4.997  0.1454 -0.6798 -0.1498
18093THY    CP142783   9.010   1.582   5.001  0.3332  0.1205  0.2376
18093THY    HP142784   9.088   1.596   4.927 -0.4394 -0.1664  3.9935
18093THY    CP242785   9.062   1.621   5.135 -0.1431 -0.0252  0.3793
18093THY    HP242786   9.120   1.539   5.179 -0.1082  0.0343  0.4356
18093THY    HP342787   8.982   1.640   5.208  1.1797  1.2947  1.1197
18093THY    HP442788   9.118   1.712   5.112  2.7126  3.5048 -0.2648
18093THY    CP342789   8.913   1.688   4.948 -0.7913  0.0983  0.1399
18093THY    HP542790   8.908   1.663   4.841  1.9583 -0.1452  0.3195
18093THY    HP642791   8.955   1.788   4.962  0.5075 -1.2125 -0.1876
18093THY    HP742792   8.815   1.675   4.996 -0.3117  0.5024 -2.8117
18093THY    CA342793   8.841   1.410   5.088 -0.5331  0.6725 -1.0748
18093THY    HA342794   8.813   1.487   5.160 -1.4944 -1.0291  0.2152
18093THY    CA442795   8.776   1.289   5.086 -0.2125 -0.1079  0.7096
18093THY    HA442796   8.703   1.261   5.161  0.5837  0.8583  1.1473
18093THY    CA542797   8.822   1.193   4.993  0.6920 -0.3971 -0.0694
18093THY    CM142798   8.744   1.062   4.993 -0.4696 -0.0711 -0.3899
18093THY    HM142799   8.651   1.052   5.049  1.2785  3.0518 -0.3265
18093THY    HM242800   8.822   0.994   5.028  1.3101 -0.6362  1.2495
18093THY    HM342801   8.722   1.031   4.890 -2.9569  0.2380  0.2086
18093THY    CA642802   8.923   1.224   4.899 -0.2953 -0.8495  0.6952
18093THY    HA642803   8.958   1.141   4.839  1.5718  2.2500 -0.9338
18094THY      O42804   8.783   7.851   1.870 -0.0520 -0.1341  0.4024
18094THY     HO42805   8.770   7.754   1.866  0.3482 -1.5049  0.3828
18094THY    CA142806   8.824   7.881   1.998 -0.3466 -0.7852 -0.2345
18094THY    CA242807   8.833   8.017   2.041 -0.3537 -0.1240 -0.1292
18094THY    CP142808   8.815   8.123   1.932  0.0905  0.1684 -0.6142
18094THY    HP142809   8.754   8.084   1.850  0.3349  0.8174 -2.4836
18094THY    CP242810   8.951   8.161   1.877  0.3620 -0.5206  0.7162
18094THY    HP242811   8.994   8.078   1.820  0.7338  2.1989 -1.0751
18094THY    HP342812   9.015   8.183   1.963 -1.1502  0.8893 -0.1502
18094THY    HP442813   8.940   8.252   1.817 -2.1875  1.6568  2.0001
18094THY    CP342814   8.743   8.247   1.981  0.2760  0.0512  0.4189
18094THY    HP542815   8.818   8.319   2.018  1.1448 -2.4450  0.8995
18094THY    HP642816   8.672   8.213   2.056  1.4067  1.3281  0.7797
18094THY    HP742817   8.688   8.293   1.898 -0.4096 -0.0477 -0.5692
18094THY    CA342818   8.857   8.049   2.180 -0.2497 -0.4091 -0.5504
18094THY    HA342819   8.877   8.151   2.213  1.4816 -3.5059  0.2526
18094THY    CA442820   8.889   7.936   2.267  0.4581 -0.0251 -0.0960
18094THY    HA442821   8.905   7.958   2.373  0.1386  0.2446 -1.1179
18094THY    CA542822   8.867   7.808   2.228 -0.5216  0.2795 -0.8908
18094THY    CM142823   8.875   7.699   2.323 -0.2029 -0.1873  0.2970
18094THY    HM142824   8.953   7.720   2.398 -1.0052  0.1998  2.1579
18094THY    HM242825   8.894   7.602   2.277 -1.4839 -0.7156  0.2826
18094THY    HM342826   8.781   7.712   2.378 -0.2064  0.0372 -0.6428
18094THY    CA642827   8.832   7.784   2.094  0.2068 -0.6593  0.1492
18094THY    HA642828   8.814   7.680   2.067 -1.0203 -0.0826  0.1920
18095THY      O42829   4.346   8.813   6.852  0.2363  0.5366 -0.2939
18095THY     HO42830   4.412   8.883   6.837  0.1466  0.4490 -0.2272
18095THY    CA142831   4.228   8.878   6.857  0.9666  0.7009 -0.3030
18095THY    CA242832   4.112   8.814   6.906 -0.3158  0.4714  0.1353
18095THY    CP142833   4.127   8.674   6.965  0.2589  0.8098  0.2049
18095THY    HP142834   4.230   8.635   6.965  0.5824 -1.1113  0.9607
18095THY    CP242835   4.043   8.575   6.880 -0.3489 -0.8798  0.2725
18095THY    HP242836   4.055   8.587   6.771  0.0129 -1.1219 -1.9146
18095THY    HP342837   3.935   8.570   6.891 -0.2444 -0.3225 -2.2599
18095THY    HP442838   4.075   8.473   6.904 -1.1669 -2.0660 -0.2871
18095THY    CP342839   4.087   8.658   7.112  0.7591  0.3086 -0.6117
18095THY    HP542840   4.140   8.735   7.168  0.0519 -0.4510  0.4662
18095THY    HP642841   4.107   8.557   7.149  0.6957  1.4732 -0.2171
18095THY    HP742842   3.980   8.673   7.132  0.8479  0.3028  0.0309
18095THY    CA342843   3.985   8.878   6.900  0.7708  0.1016 -0.6754
18095THY    HA342844   3.893   8.827   6.928  1.0363  1.7642 -0.2974
18095THY    CA442845   3.980   9.008   6.852  0.4750  0.5632 -0.3571
18095THY    HA442846   3.882   9.052   6.836  0.4355  1.3893 -0.1209
18095THY    CA542847   4.096   9.080   6.822  0.7556 -0.4236  0.4725
18095THY    CM142848   4.095   9.225   6.786  0.0266  0.2636  0.3397
18095THY    HM142849   4.045   9.242   6.690  1.3279 -0.3970  0.5708
18095THY    HM242850   4.198   9.249   6.756  0.0965 -1.3031 -1.6581
18095THY    HM342851   4.066   9.282   6.875 -0.2205  0.5310 -0.1942
18095THY    CA642852   4.217   9.013   6.832 -0.8094  0.4584 -1.0184
18095THY    HA642853   4.312   9.059   6.804 -0.0792  0.7502 -2.2893
18096THY      O42854   4.639   1.135   2.890 -0.5798  0.3043  0.0872
18096THY     HO42855   4.591   1.181   2.819 -1.4150  0.7950 -0.0061
18096THY    CA142856   4.772   1.155   2.865  0.6250  0.4300  0.4452
18096THY    CA242857   4.857   1.193   2.973 -0.4504 -0.0071 -0.7756
18096THY    CP142858   4.812   1.181   3.120 -0.4866  0.0251  0.0284
18096THY    HP142859   4.709   1.142   3.125 -0.5939  0.3737  0.3427
18096THY    CP242860   4.821   1.320   3.184  0.3920 -0.0717 -0.0094
18096THY    HP242861   4.906   1.381   3.149 -0.1005 -0.6194  0.3709
18096THY    HP342862   4.832   1.295   3.290 -0.1987 -0.4101 -1.8348
18096THY    HP442863   4.729   1.373   3.158  0.5103  2.4111  1.5787
18096THY    CP342864   4.910   1.082   3.189  0.3315  0.3034  0.7070
18096THY    HP542865   5.011   1.123   3.192  0.8421  1.5709 -0.5940
18096THY    HP642866   4.916   0.988   3.133 -4.1973 -1.5959  1.2851
18096THY    HP742867   4.881   1.067   3.293 -0.8498  0.4544  3.4627
18096THY    CA342868   4.985   1.212   2.939 -0.0673  0.2407 -0.8805
18096THY    HA342869   5.067   1.243   3.003  1.1811 -1.5344 -0.3744
18096THY    CA442870   5.025   1.201   2.807 -0.2630 -0.0198  0.5809
18096THY    HA442871   5.129   1.224   2.785 -0.3278 -0.1640  0.7432
18096THY    CA542872   4.941   1.176   2.706 -0.1098  0.0699  0.1921
18096THY    CM142873   4.996   1.170   2.568  1.1445  0.0153  0.0488
18096THY    HM142874   4.926   1.220   2.501  0.4041  1.7831  1.5034
18096THY    HM242875   5.024   1.067   2.544 -1.0019  0.1033 -0.6189
18096THY    HM342876   5.090   1.225   2.557  0.6604  1.4555  1.2388
18096THY    CA642877   4.813   1.144   2.739 -0.5705  1.2783  0.3518
18096THY    HA642878   4.744   1.122   2.658 -0.5962  1.2842  0.4115
18097THY      O42879   9.026   5.151   3.211 -0.1545  0.3966 -0.4550
18097THY     HO42880   9.033   5.093   3.289  0.5399 -0.0578 -0.9996
18097THY    CA142881   8.899   5.164   3.165  0.3384 -1.1588  0.5119
18097THY    CA242882   8.861   5.242   3.056  1.0384 -0.7987 -0.3082
18097THY    CP142883   8.967   5.315   2.978  0.1950 -0.1409  0.1510
18097THY    HP142884   9.050   5.339   3.045 -0.8837  1.2276  0.2099
18097THY    CP242885   8.935   5.441   2.912  0.1858  0.1651 -0.6889
18097THY    HP242886   8.903   5.520   2.981  1.7367 -0.2994  0.4162
18097THY    HP342887   8.859   5.434   2.833  0.0639  0.0041  1.6042
18097THY    HP442888   9.026   5.477   2.862 -0.9151  0.3383  2.6846
18097THY    CP342889   9.019   5.218   2.873 -0.2015  0.5608 -0.2765
18097THY    HP542890   8.941   5.182   2.804 -0.7720  1.1900 -0.2828
18097THY    HP642891   9.051   5.133   2.933 -0.1104 -1.7303 -1.9606
18097THY    HP742892   9.103   5.255   2.813 -1.6912 -2.9858 -2.1067
18097THY    CA342893   8.731   5.256   3.020  0.0585  0.0941 -0.7632
18097THY    HA342894   8.707   5.316   2.933  1.5559  1.5163  2.1308
18097THY    CA442895   8.633   5.183   3.093 -0.2406 -0.5006  0.4754
18097THY    HA442896   8.528   5.188   3.066 -0.4938  0.2743 -0.4342
18097THY    CA542897   8.673   5.098   3.199  0.4538  0.2822 -0.2275
18097THY    CM142898   8.579   5.023   3.283  0.3427  0.3513  0.8433
18097THY    HM142899   8.627   4.995   3.377  1.4013  0.4328  2.7943
18097THY    HM242900   8.545   4.931   3.234 -0.6408  2.2733  0.1256
18097THY    HM342901   8.489   5.082   3.308 -0.6868  1.9625 -1.2784
18097THY    CA642902   8.808   5.091   3.238  0.8161  0.2521 -0.1502
18097THY    HA642903   8.836   5.033   3.325 -2.3098  0.2867 -1.8415
18098THY      O42904   3.342   1.864   6.364  0.6251 -0.2464 -0.4486
18098THY     HO42905   3.284   1.868   6.442  0.7639 -0.1867  0.9409
18098THY    CA142906   3.274   1.787   6.276 -0.0311 -0.7074 -0.0445
18098THY    CA242907   3.265   1.646   6.281  0.2522 -0.9179 -0.0891
18098THY    CP142908   3.339   1.571   6.398 -0.1318 -0.2149  0.5220
18098THY    HP142909   3.338   1.634   6.488 -3.7685  1.7385 -1.9341
18098THY    CP242910   3.475   1.542   6.339 -0.5484  0.8411 -0.5837
18098THY    HP242911   3.504   1.646   6.324  0.8837  0.3257 -1.0233
18098THY    HP342912   3.476   1.476   6.251 -0.6379  0.4124 -0.0161
18098THY    HP442913   3.534   1.515   6.428 -0.1167  0.6445 -0.2981
18098THY    CP342914   3.267   1.449   6.456 -0.4002  0.0033  0.2212
18098THY    HP542915   3.166   1.470   6.492 -1.1063  0.4103 -3.3207
18098THY    HP642916   3.319   1.390   6.532  0.3220 -1.4905 -1.1587
18098THY    HP742917   3.258   1.374   6.377  1.0932 -0.0301  0.0490
18098THY    CA342918   3.178   1.585   6.191 -0.8023 -0.3462  0.2349
18098THY    HA342919   3.171   1.476   6.191 -1.9074  0.4827  0.2966
18098THY    CA442920   3.113   1.659   6.091  0.2689  0.3447  0.0525
18098THY    HA442921   3.034   1.613   6.031 -0.4483  1.4147 -0.1456
18098THY    CA542922   3.139   1.795   6.070 -0.7005 -0.5652 -0.3307
18098THY    CM142923   3.085   1.868   5.951 -0.0960 -0.6558 -0.3205
18098THY    HM142924   2.978   1.891   5.962 -0.4212 -0.8358 -1.7018
18098THY    HM242925   3.092   1.805   5.862  0.2498  0.2514 -1.5959
18098THY    HM342926   3.160   1.945   5.927  0.9683 -0.1093 -1.1576
18098THY    CA642927   3.211   1.856   6.168  0.6323 -0.9006 -0.0835
18098THY    HA642928   3.224   1.964   6.170 -1.1636 -2.8395  0.2296
18099THY      O42929   2.496   0.777   6.258 -0.0267  0.1885 -0.2179
18099THY     HO42930   2.500   0.847   6.191  0.4683  2.6906  2.3317
18099THY    CA142931   2.411   0.813   6.360  0.3081  0.3031 -0.3828
18099THY    CA242932   2.438   0.791   6.496  0.4569 -1.2245  0.8578
18099THY    CP142933   2.570   0.729   6.539 -0.1302  0.0814  0.2357
18099THY    HP142934   2.631   0.687   6.457  0.5144  1.3225 -1.3533
18099THY    CP242935   2.555   0.601   6.626 -0.1106 -0.1767  0.1966
18099THY    HP242936   2.488   0.624   6.710 -1.3923 -1.2598  0.5442
18099THY    HP342937   2.656   0.581   6.663 -1.0637  1.4729 -1.9816
18099THY    HP442938   2.510   0.521   6.565 -1.0298  0.0024  0.5735
18099THY    CP342939   2.652   0.842   6.606 -0.4268  0.2411  0.1764
18099THY    HP542940   2.632   0.932   6.547 -0.3417 -2.3798 -1.4343
18099THY    HP642941   2.760   0.829   6.604 -0.5996 -0.9820 -1.2374
18099THY    HP742942   2.618   0.855   6.710 -0.7744  0.2391 -0.6631
18099THY    CA342943   2.332   0.804   6.596  0.3589  0.6687 -0.2868
18099THY    HA342944   2.343   0.788   6.703 -0.0596  0.6129 -0.9925
18099THY    CA442945   2.210   0.861   6.550  0.1691  0.2496  0.5629
18099THY    HA442946   2.134   0.891   6.621  0.1869  0.3177  0.4502
18099THY    CA542947   2.187   0.889   6.419 -0.1309  0.3017 -0.3125
18099THY    CM142948   2.056   0.957   6.385 -0.6040  0.7228  0.0379
18099THY    HM142949   2.062   1.025   6.299  0.4477  0.0350 -0.8930
18099THY    HM242950   2.009   1.006   6.471 -1.8482  0.2870 -0.3721
18099THY    HM342951   1.989   0.878   6.349  0.0511 -1.2523  0.3222
18099THY    CA642952   2.285   0.860   6.323 -0.7967  0.3070 -0.2159
18099THY    HA642953   2.273   0.865   6.216 -0.6782  0.2912 -0.2642
18100THY      O42954   6.848   5.215   2.880  0.8154  0.0205  0.2599
18100THY     HO42955   6.933   5.168   2.879 -0.0600  0.0812 -1.4026
18100THY    CA142956   6.768   5.151   2.978  0.7074 -0.7109 -0.0986
18100THY    CA242957   6.621   5.154   2.983 -0.1949 -0.0227  0.1104
18100THY    CP142958   6.539   5.245   2.886  0.1783  0.2824 -0.0475
18100THY    HP142959   6.595   5.336   2.860 -1.2886 -0.0660  0.7938
18100THY    CP242960   6.410   5.301   2.947 -0.5523  0.1731 -0.6078
18100THY    HP242961   6.332   5.225   2.952  0.4613 -0.3844 -1.7175
18100THY    HP342962   6.376   5.389   2.891  2.8003 -0.7065  0.2762
18100THY    HP442963   6.416   5.330   3.052 -2.2321  0.3191 -0.6669
18100THY    CP342964   6.515   5.169   2.754 -0.0019 -0.0120 -0.4295
18100THY    HP542965   6.471   5.237   2.680 -0.5099  1.9380  1.5183
18100THY    HP642966   6.446   5.086   2.771 -2.4784  2.0681  1.8263
18100THY    HP742967   6.611   5.134   2.715 -0.4103 -1.1364 -0.3375
18100THY    CA342968   6.556   5.084   3.087  0.2128  0.2515  0.5059
18100THY    HA342969   6.450   5.099   3.101 -0.1930 -0.3908 -1.4126
18100THY    CA442970   6.625   4.995   3.165  0.1348 -0.5638  0.6873
18100THY    HA442971   6.578   4.941   3.247 -0.2214 -1.1614  0.0854
18100THY    CA542972   6.762   4.993   3.156  0.1924  0.2456 -0.1092
18100THY    CM142973   6.835   4.890   3.244  0.2647 -0.4897 -0.2228
18100THY    HM142974   6.941   4.919   3.241 -0.3598 -1.5876  2.1842
18100THY    HM242975   6.811   4.791   3.203  1.0099 -2.1449  0.2494
18100THY    HM342976   6.814   4.895   3.351  0.5717 -0.4248 -0.2571
18100THY    CA642977   6.836   5.067   3.062  1.0759  0.0611 -0.2731
18100THY    HA642978   6.944   5.067   3.054  1.0449 -0.9643  1.8309
18101THY      O42979   8.065   5.235   7.541 -0.0547  0.3410 -0.2902
18101THY     HO42980   8.010   5.155   7.543 -1.1647  2.9474  0.4476
18101THY    CA142981   8.123   5.250   7.419  1.1487  0.6304  0.6880
18101THY    CA242982   8.235   5.326   7.401 -0.3495  0.5615 -0.1080
18101THY    CP142983   8.307   5.384   7.523 -0.1170 -0.1252  1.0322
18101THY    HP142984   8.244   5.402   7.610  0.4649  0.7990 -1.1276
18101THY    CP242985   8.374   5.519   7.497 -0.6014  0.0684 -0.2540
18101THY    HP242986   8.394   5.576   7.588 -0.7542 -0.2073  0.2477
18101THY    HP342987   8.309   5.589   7.441 -0.3765  1.1751  0.8774
18101THY    HP442988   8.463   5.517   7.433 -0.4597  0.2921 -1.5862
18101THY    CP342989   8.406   5.284   7.593 -0.0402  0.0599 -0.0390
18101THY    HP542990   8.352   5.192   7.618  1.0460 -0.7222 -0.9119
18101THY    HP642991   8.448   5.329   7.684 -1.4784  1.2409 -0.9881
18101THY    HP742992   8.493   5.269   7.529  0.8322  1.0185  0.7771
18101THY    CA342993   8.288   5.342   7.270  0.3883  0.1011  0.2750
18101THY    HA342994   8.379   5.400   7.258  1.6845 -0.1340 -1.7253
18101THY    CA442995   8.220   5.285   7.164  0.3604  0.1273 -0.4997
18101THY    HA442996   8.247   5.298   7.059  0.3716  0.1737 -0.1342
18101THY    CA542997   8.105   5.210   7.184  0.1029  0.4954 -0.2467
18101THY    CM142998   8.027   5.146   7.076  0.5070  0.3626 -0.1457
18101THY    HM142999   8.039   5.038   7.089 -2.1738  1.0219 -0.4332
18101THY    HM243000   8.047   5.174   6.972  0.1751 -0.6862 -3.4069
18101THY    HM343001   7.921   5.152   7.103  0.0222 -1.3419 -0.5465
18101THY    CA643002   8.060   5.190   7.313  0.7386 -0.8093 -0.5297
18101THY    HA643003   7.973   5.129   7.336  0.6317 -3.1050 -1.3159
18102THY      O43004   3.141   4.619   6.249 -0.3668  0.4419 -0.6457
18102THY     HO43005   3.098   4.664   6.323 -1.6125 -1.4676  1.5466
18102THY    CA143006   3.067   4.505   6.231 -0.3315  0.4741  0.4467
18102THY    CA243007   3.086   4.435   6.110 -0.7416 -0.4982  0.4029
18102THY    CP143008   3.200   4.473   6.015  0.4253 -0.9622  0.2979
18102THY    HP143009   3.212   4.582   6.018 -3.0293 -2.1281  0.8137
18102THY    CP243010   3.167   4.444   5.865  0.0024 -0.3650  0.3288
18102THY    HP243011   3.073   4.487   5.828  0.4212 -1.5559  0.2586
18102THY    HP343012   3.162   4.334   5.861  2.4636 -1.2557  0.1900
18102THY    HP443013   3.250   4.485   5.807  1.3134  1.3720  0.2371
18102THY    CP343014   3.325   4.398   6.061  0.1031 -0.0758  0.2324
18102THY    HP543015   3.348   4.437   6.161  0.5165 -0.0683 -0.0220
18102THY    HP643016   3.411   4.413   5.995 -0.1349 -0.5143 -0.2898
18102THY    HP743017   3.306   4.290   6.067  0.5774  0.7759  0.1857
18102THY    CA343018   3.018   4.314   6.094 -0.1997  0.4671  0.0427
18102THY    HA343019   3.020   4.267   5.996 -0.0160 -1.7896  4.2088
18102THY    CA443020   2.925   4.278   6.196 -0.8432 -0.2202 -0.1116
18102THY    HA443021   2.860   4.192   6.182 -3.1646 -0.9458  1.6403
18102THY    CA543022   2.916   4.350   6.314 -0.1428 -0.7642 -0.3414
18102THY    CM143023   2.819   4.311   6.417  0.7988  0.3213 -0.1004
18102THY    HM143024   2.733   4.378   6.405 -0.3764  2.0315 -1.2052
18102THY    HM243025   2.863   4.306   6.517 -0.3574  0.8133 -1.0736
18102THY    HM343026   2.771   4.214   6.397  0.3381  0.5706  0.0728
18102THY    CA643027   2.982   4.472   6.325  0.2560 -0.3894 -0.8477
18102THY    HA643028   2.956   4.525   6.416 -0.0342 -0.6136 -0.6006
18103THY      O43029   3.936   2.948   7.139 -0.1980 -0.1181 -0.2349
18103THY     HO43030   3.985   2.892   7.201  0.6225 -0.5758 -0.0451
18103THY    CA143031   4.033   3.018   7.072 -0.2601  0.5433 -0.4971
18103THY    CA243032   4.007   3.116   6.979  0.3271  0.4885  0.9065
18103THY    CP143033   3.859   3.127   6.931  0.0602 -0.6217  0.5310
18103THY    HP143034   3.789   3.066   6.989 -0.1422 -0.7509  0.6358
18103THY    CP243035   3.838   3.103   6.776 -0.3733 -0.4855  0.1283
18103THY    HP243036   3.900   3.165   6.712 -0.5281 -0.1604  0.6273
18103THY    HP343037   3.731   3.112   6.754 -0.4965 -0.3269 -0.7808
18103THY    HP443038   3.855   2.996   6.757  1.0737 -1.3119  0.4868
18103THY    CP343039   3.819   3.277   6.949 -0.5717  0.2222  0.4509
18103THY    HP543040   3.717   3.291   6.912 -0.9659  0.9526 -0.3805
18103THY    HP643041   3.883   3.347   6.894  0.2178 -0.9111 -1.0987
18103THY    HP743042   3.810   3.301   7.056 -1.2100  0.3518 -0.3462
18103THY    CA343043   4.111   3.195   6.923 -0.0775  0.6246 -0.0638
18103THY    HA343044   4.085   3.267   6.846 -1.8757  1.1824 -0.0762
18103THY    CA443045   4.241   3.183   6.977  0.4160 -0.0798  1.1709
18103THY    HA443046   4.328   3.238   6.940  0.4058 -1.5018  0.2840
18103THY    CA543047   4.268   3.085   7.075 -0.0023 -0.7110  0.2575
18103THY    CM143048   4.402   3.050   7.114 -0.7384 -0.4068  0.1266
18103THY    HM143049   4.407   3.032   7.222 -1.8956 -0.1145  1.3653
18103THY    HM243050   4.476   3.127   7.088 -1.4617 -0.6574  0.7541
18103THY    HM343051   4.445   2.969   7.056  1.3080 -1.3256  1.7764
18103THY    CA643052   4.162   2.997   7.118 -0.6198 -0.1320 -0.7628
18103THY    HA643053   4.180   2.909   7.179 -3.0241 -0.3866 -1.5185
18104THY      O43054   8.057   1.465   5.579 -0.1409 -0.2131 -0.2792
18104THY     HO43055   8.142   1.426   5.550 -0.5462  2.3392 -3.5587
18104THY    CA143056   7.967   1.457   5.481 -0.0932  0.5095 -0.1025
18104THY    CA243057   7.841   1.521   5.468 -0.0946 -0.3695  0.0557
18104THY    CP143058   7.806   1.626   5.579 -0.7090 -0.0134  0.0162
18104THY    HP143059   7.883   1.626   5.658 -0.2124 -0.4797 -1.4976
18104THY    CP243060   7.673   1.602   5.653 -0.0155 -0.3262 -0.1541
18104THY    HP243061   7.677   1.516   5.720  3.0031 -1.6475 -1.1859
18104THY    HP343062   7.592   1.584   5.581 -0.0305  0.1601 -2.3343
18104THY    HP443063   7.645   1.689   5.712 -0.7149  0.1399 -0.6813
18104THY    CP343064   7.812   1.770   5.526  0.5238  0.3759 -0.6929
18104THY    HP543065   7.757   1.849   5.578  2.1950  0.3479  0.5521
18104THY    HP643066   7.773   1.788   5.425  1.8887  0.1666  1.5135
18104THY    HP743067   7.918   1.794   5.511  1.0836  0.8390 -2.7233
18104THY    CA343068   7.757   1.505   5.357  0.0717 -0.3329 -0.4130
18104THY    HA343069   7.662   1.556   5.359  0.4344 -1.1949  0.3280
18104THY    CA443070   7.811   1.433   5.251 -0.1378  0.3574 -0.4162
18104THY    HA443071   7.757   1.416   5.158  0.8695 -0.0170 -1.7745
18104THY    CA543072   7.940   1.375   5.254 -0.0170  0.4691 -0.2093
18104THY    CM143073   7.991   1.291   5.145 -0.4004 -0.2575  0.9000
18104THY    HM143074   7.940   1.329   5.056 -0.0423 -0.8105  0.0957
18104THY    HM243075   7.946   1.193   5.166  1.0222 -0.5132  0.1630
18104THY    HM343076   8.098   1.267   5.149 -0.6837  1.0467 -0.2748
18104THY    CA643077   8.015   1.385   5.371  0.1312  0.4946 -0.1050
18104THY    HA643078   8.109   1.331   5.375 -0.1319  0.4657 -0.5782
18105THY      O43079   8.017   8.827   7.064 -0.1418  0.1840  0.1359
18105THY     HO43080   8.005   8.772   6.984  0.6555 -1.1853  1.8569
18105THY    CA143081   7.948   8.940   7.048  0.6004 -0.8563 -0.1020
18105THY    CA243082   7.965   9.049   7.141 -0.7225  0.2395  0.2621
18105THY    CP143083   8.072   9.045   7.243  0.3232 -0.9492  0.8392
18105THY    HP143084   8.159   9.007   7.188 -0.2225 -0.8383 -0.6272
18105THY    CP243085   8.047   8.955   7.362  0.5062  0.4226 -0.3658
18105THY    HP243086   8.056   8.852   7.327  1.6821 -1.4490  0.3263
18105THY    HP343087   7.944   8.977   7.394  0.3726 -0.9577  1.1450
18105THY    HP443088   8.117   8.972   7.445 -0.9411  1.4356  0.8963
18105THY    CP343089   8.113   9.185   7.300 -0.7373 -0.0200  0.7588
18105THY    HP543090   8.046   9.212   7.382 -2.3378 -0.4548 -1.5746
18105THY    HP643091   8.102   9.256   7.217  1.5633  0.0315  1.2326
18105THY    HP743092   8.214   9.186   7.342 -0.9336  0.5872 -0.9510
18105THY    CA343093   7.882   9.157   7.121 -0.5829 -0.4435 -0.6129
18105THY    HA343094   7.887   9.250   7.176 -0.8320 -1.4040 -0.0266
18105THY    CA443095   7.785   9.160   7.020  0.9093 -0.2088 -0.1305
18105THY    HA443096   7.715   9.243   7.014 -0.7446  0.5061 -1.4047
18105THY    CA543097   7.775   9.053   6.933  0.1647 -0.3708  0.3381
18105THY    CM143098   7.680   9.055   6.815  0.0346  0.8186  0.2405
18105THY    HM143099   7.638   8.959   6.784 -1.2628 -1.2479  1.4078
18105THY    HM243100   7.727   9.083   6.720  0.2436 -0.2357 -3.2542
18105THY    HM343101   7.595   9.122   6.836 -0.3580 -0.1871  0.0725
18105THY    CA643102   7.852   8.943   6.948  0.8745 -1.0866 -0.3899
18105THY    HA643103   7.855   8.858   6.880  2.0835 -1.8011  0.1957
18106THY      O43104   3.410   8.034   2.331  0.0389  0.9071  0.1661
18106THY     HO43105   3.504   8.051   2.316  0.6453  0.5918 -2.8358
18106THY    CA143106   3.382   7.916   2.274 -0.5960  0.3620 -0.2350
18106THY    CA243107   3.255   7.865   2.270 -0.5440 -0.9112  0.2357
18106THY    CP143108   3.140   7.940   2.328 -0.2289 -0.7041 -0.3744
18106THY    HP143109   3.169   8.039   2.365  0.1361 -0.9692 -0.3805
18106THY    CP243110   3.082   7.869   2.457  0.4262 -0.5321  0.3660
18106THY    HP243111   3.163   7.854   2.530 -0.7838  0.7624 -0.0636
18106THY    HP343112   3.036   7.773   2.433 -0.5036 -1.0277  0.9214
18106THY    HP443113   2.998   7.922   2.505  0.2969  0.7764 -0.9729
18106THY    CP343114   3.022   7.958   2.233  0.3096  0.2032 -0.4537
18106THY    HP543115   2.942   7.888   2.256  0.0015  1.7002  0.3404
18106THY    HP643116   3.068   7.958   2.134 -1.6931 -0.8030  0.9601
18106THY    HP743117   2.986   8.061   2.245  2.4433  1.5643  0.2234
18106THY    CA343118   3.221   7.753   2.197  0.2797 -0.9050 -0.3713
18106THY    HA343119   3.119   7.717   2.186 -0.2515 -1.5772  1.2553
18106THY    CA443120   3.331   7.678   2.154  0.7575  0.3987 -0.6082
18106THY    HA443121   3.309   7.585   2.101 -1.1970 -0.9712  0.5633
18106THY    CA543122   3.460   7.717   2.168  0.0075  0.0205 -0.0730
18106THY    CM143123   3.573   7.640   2.101  0.4411 -0.1118  0.1808
18106THY    HM143124   3.677   7.649   2.134  0.5302  0.5501 -2.4126
18106THY    HM243125   3.562   7.657   1.993  1.2858 -0.2380 -0.0143
18106THY    HM343126   3.557   7.532   2.112  2.4494 -1.6341 -0.3449
18106THY    CA643127   3.486   7.845   2.221 -0.2081  0.6639  0.2135
18106THY    HA643128   3.589   7.877   2.220 -0.1237  0.0358 -0.0616
18107THY      O43129   6.648   8.805   3.437  0.1724 -0.2052  0.0214
18107THY     HO43130   6.651   8.858   3.518 -0.3111 -2.3693  3.6600
18107THY    CA143131   6.781   8.789   3.408 -0.4044 -0.2523  0.4906
18107THY    CA243132   6.826   8.750   3.282  0.3279 -0.3385  0.0361
18107THY    CP143133   6.717   8.742   3.167  0.2618  0.4252  0.0969
18107THY    HP143134   6.616   8.774   3.196 -0.4123 -1.5571 -0.1162
18107THY    CP243135   6.702   8.590   3.114 -0.0868 -0.2886 -0.4902
18107THY    HP243136   6.654   8.538   3.198  0.6923  1.6741  1.7589
18107THY    HP343137   6.799   8.555   3.078  0.1305  0.1543 -0.3612
18107THY    HP443138   6.640   8.576   3.025 -0.1076 -0.1206 -1.5187
18107THY    CP343139   6.756   8.827   3.044  0.2089 -0.0083 -0.1130
18107THY    HP543140   6.856   8.800   3.007 -0.3265 -1.6613  0.0189
18107THY    HP643141   6.746   8.931   3.078  0.6267 -0.7003  0.1609
18107THY    HP743142   6.685   8.808   2.963 -0.5922 -0.1373  2.8865
18107THY    CA343143   6.968   8.738   3.264  0.0808  0.3061  0.5463
18107THY    HA343144   7.005   8.720   3.164 -0.4406  0.0777  0.7173
18107THY    CA443145   7.056   8.744   3.371  0.5404  0.0540 -0.0902
18107THY    HA443146   7.160   8.714   3.361 -0.3875 -2.1049 -3.0974
18107THY    CA543147   7.003   8.779   3.501 -0.3794  0.7077 -0.8379
18107THY    CM143148   7.093   8.761   3.625 -0.3808  0.0323 -0.1143
18107THY    HM143149   7.179   8.828   3.617  0.1103  2.0206 -0.4520
18107THY    HM243150   7.136   8.661   3.632 -1.1036  1.4709 -0.3465
18107THY    HM343151   7.036   8.796   3.712  0.2669  0.3054  0.2802
18107THY    CA643152   6.870   8.808   3.515  0.2792  0.0544  0.0624
18107THY    HA643153   6.839   8.834   3.616 -0.3902 -0.4194  1.1418
18108THY      O43154   1.990   9.323   4.013  0.2968 -0.2759 -0.0823
18108THY     HO43155   1.922   9.337   4.081  1.6858  1.3248 -0.7545
18108THY    CA143156   2.086   9.265   4.079  0.2890 -0.0314 -0.4635
18108THY    CA243157   2.200   9.214   4.017 -0.6013  0.6510 -0.0841
18108THY    CP143158   2.209   9.236   3.865  0.2521 -0.2943 -0.1206
18108THY    HP143159   2.165   9.330   3.830  0.1550 -0.1196 -0.1011
18108THY    CP243160   2.135   9.126   3.801 -0.6370 -0.2404  0.0996
18108THY    HP243161   2.145   9.147   3.694 -1.3392 -0.4387 -0.5576
18108THY    HP343162   2.028   9.129   3.826 -0.2159  1.7075  0.0685
18108THY    HP443163   2.177   9.026   3.819 -1.4122 -1.2698 -0.4302
18108THY    CP343164   2.358   9.242   3.824 -1.1288  1.2275  0.2969
18108THY    HP543165   2.355   9.261   3.716  0.3948  1.3473  1.3346
18108THY    HP643166   2.418   9.151   3.834  1.2337  0.2433  1.6396
18108THY    HP743167   2.426   9.320   3.861 -1.2182 -0.2195  1.1033
18108THY    CA343168   2.305   9.150   4.095 -0.0335  0.2909  0.3986
18108THY    HA343169   2.389   9.100   4.047  0.9637  3.2206 -0.9153
18108THY    CA443170   2.282   9.141   4.234 -1.5977  0.0596  0.2612
18108THY    HA443171   2.342   9.081   4.302 -0.8076 -1.0648 -0.2560
18108THY    CA543172   2.175   9.205   4.295  0.4739 -0.5852  0.2305
18108THY    CM143173   2.165   9.211   4.444 -0.2436  0.0688 -0.1605
18108THY    HM143174   2.074   9.157   4.473 -0.3010  1.6872  0.7220
18108THY    HM243175   2.150   9.315   4.477  0.2761  1.3223 -0.4699
18108THY    HM343176   2.246   9.154   4.491 -0.9424 -0.0814 -1.2985
18108THY    CA643177   2.073   9.265   4.215 -0.3469  0.3114  0.0862
18108THY    HA643178   1.989   9.316   4.261 -0.1123 -1.9357  2.7396
18109THY      O43179   8.230   5.807   4.732  0.1066  0.3479 -0.0625
18109THY     HO43180   8.222   5.732   4.794 -0.2133 -1.0507 -1.2152
18109THY    CA143181   8.219   5.743   4.613  0.4898  0.5815 -0.0499
18109THY    CA243182   8.158   5.806   4.497 -0.5438 -0.9006  0.5700
18109THY    CP143183   8.118   5.955   4.500 -0.2614  0.1172 -0.5421
18109THY    HP143184   8.130   6.002   4.599 -0.2525  0.0094 -0.3152
18109THY    CP243185   7.968   5.978   4.468  0.6013  0.3255 -0.1793
18109THY    HP243186   7.924   5.922   4.551 -0.1784 -0.3235 -0.5365
18109THY    HP343187   7.957   5.925   4.373 -1.3246 -0.2586  1.1701
18109THY    HP443188   7.938   6.082   4.450  1.4385 -5.3041 -0.5967
18109THY    CP343189   8.217   6.038   4.416  0.6667  0.6109  0.2366
18109THY    HP543190   8.306   6.056   4.477 -0.2557  1.0936  4.0342
18109THY    HP643191   8.167   6.130   4.386 -0.7483  0.3564 -0.5891
18109THY    HP743192   8.243   5.975   4.330 -2.5661  0.7284 -1.4667
18109THY    CA343193   8.139   5.726   4.386 -0.2117 -0.1206  0.1548
18109THY    HA343194   8.086   5.758   4.296  0.2775 -0.5547 -0.2372
18109THY    CA443195   8.178   5.595   4.386 -0.5222 -0.1386  1.3637
18109THY    HA443196   8.155   5.527   4.304  0.9305 -1.7367  2.6952
18109THY    CA543197   8.238   5.533   4.494  0.1535  0.1762 -1.0675
18109THY    CM143198   8.251   5.386   4.499  0.4699  0.3788 -0.3307
18109THY    HM143199   8.258   5.352   4.395 -0.8358  0.3105 -0.4542
18109THY    HM243200   8.157   5.342   4.534 -0.2156 -2.2462 -1.1501
18109THY    HM343201   8.337   5.358   4.561  0.1667  0.8851 -0.1587
18109THY    CA643202   8.253   5.610   4.607  0.0405 -0.1641 -0.3349
18109THY    HA643203   8.290   5.558   4.694 -1.3846  1.4769  1.2523
18110THY      O43204   6.323   9.041   3.539 -0.6750  0.2247 -0.0049
18110THY     HO43205   6.304   8.951   3.509  0.6750 -0.4797 -0.0750
18110THY    CA143206   6.226   9.082   3.626  0.7466  0.0631 -0.5033
18110THY    CA243207   6.090   9.039   3.614 -0.7617 -0.4465 -0.3975
18110THY    CP143208   6.043   8.945   3.507  0.1890  0.0417  0.0298
18110THY    HP143209   6.127   8.926   3.438  1.3568  1.1248  1.0857
18110THY    CP243210   5.940   9.017   3.422  0.1940  0.5797 -0.0508
18110THY    HP243211   5.950   8.985   3.318 -1.4941  0.0727  0.9337
18110THY    HP343212   5.967   9.123   3.410 -1.7523 -0.5389  0.3555
18110THY    HP443213   5.839   9.001   3.461  0.2144  0.0231 -1.6898
18110THY    CP343214   6.009   8.805   3.553  0.3721 -0.5953  0.4043
18110THY    HP543215   6.090   8.759   3.611  1.7176 -2.0025  0.8931
18110THY    HP643216   5.995   8.734   3.471  0.1077  1.0351 -1.5350
18110THY    HP743217   5.918   8.806   3.614  0.9454  0.2817  2.4413
18110THY    CA343218   6.008   9.096   3.713  0.0285  0.9972  0.5948
18110THY    HA343219   5.905   9.060   3.716  0.2921  0.1971 -0.2563
18110THY    CA443220   6.051   9.183   3.812 -0.8504 -0.3779 -0.1611
18110THY    HA443221   5.985   9.223   3.888 -0.1685 -0.0683  0.3905
18110THY    CA543222   6.183   9.212   3.825 -0.5185 -0.2283  0.4526
18110THY    CM143223   6.241   9.283   3.946  0.0913  0.1064  0.3981
18110THY    HM143224   6.348   9.304   3.942  1.1583 -0.7790 -4.1222
18110THY    HM243225   6.233   9.230   4.042 -0.6874 -0.2187 -0.1030
18110THY    HM343226   6.190   9.379   3.940 -1.7941 -0.1393 -0.5647
18110THY    CA643227   6.273   9.172   3.724  0.5844 -0.9837  0.6523
18110THY    HA643228   6.380   9.187   3.732  0.5531  1.0815  0.1001
18111THY      O43229   1.000   8.136   5.711  0.4435  0.4148  0.0333
18111THY     HO43230   0.949   8.156   5.791 -0.9888 -0.7573  1.3108
18111THY    CA143231   1.099   8.054   5.751 -0.9310 -0.2355 -0.0725
18111THY    CA243232   1.198   8.004   5.660  1.3956 -0.7300 -0.1272
18111THY    CP143233   1.204   8.060   5.525  0.3060  0.3265  0.1310
18111THY    HP143234   1.108   8.107   5.501  0.1226  0.0491 -0.3668
18111THY    CP243235   1.205   7.938   5.432 -0.5082 -0.4771  0.4067
18111THY    HP243236   1.174   7.972   5.332  0.4556 -0.8760  0.1574
18111THY    HP343237   1.125   7.870   5.463  0.3242  2.3498  0.6057
18111THY    HP443238   1.304   7.891   5.431 -1.1232  0.0107 -0.9397
18111THY    CP343239   1.323   8.142   5.497  0.6465  0.3368  0.5418
18111THY    HP543240   1.420   8.092   5.510  1.5087  0.6963  2.2081
18111THY    HP643241   1.321   8.241   5.544  3.2256 -0.4290  1.0535
18111THY    HP743242   1.322   8.171   5.392  2.8702  0.6193  1.9564
18111THY    CA343243   1.284   7.902   5.710 -0.6251 -0.1386 -0.3105
18111THY    HA343244   1.367   7.876   5.645  1.0101  2.1377 -1.1130
18111THY    CA443245   1.288   7.870   5.848  0.0429  0.2112 -0.0779
18111THY    HA443246   1.358   7.795   5.883  1.2247 -2.0673 -0.1294
18111THY    CA543247   1.191   7.926   5.932  0.0752 -0.0584 -0.9593
18111THY    CM143248   1.206   7.899   6.078  0.4895  0.3991 -0.4663
18111THY    HM143249   1.270   7.811   6.087  0.2276 -3.7520 -1.2659
18111THY    HM243250   1.116   7.864   6.129  0.4331  0.2528 -0.5377
18111THY    HM343251   1.251   7.982   6.133  1.7045 -0.0300 -0.8162
18111THY    CA643252   1.095   8.019   5.882 -0.2983 -0.1509  0.5339
18111THY    HA643253   1.026   8.062   5.954  0.1556  0.8135 -0.3145
18112THY      O43254   4.381   0.838   3.942 -0.1968 -0.3338 -0.1359
18112THY     HO43255   4.306   0.806   3.890 -0.3202 -0.2021 -0.0591
18112THY    CA143256   4.401   0.763   4.049 -0.0017  0.0980 -0.4528
18112THY    CA243257   4.509   0.788   4.133  0.8957 -0.2429  0.1356
18112THY    CP143258   4.612   0.897   4.102 -0.5883  1.0105 -0.2234
18112THY    HP143259   4.552   0.983   4.071 -0.2472  2.2576  0.5022
18112THY    CP243260   4.694   0.857   3.980  0.3985  0.1182  0.0260
18112THY    HP243261   4.733   0.942   3.923 -0.9251 -1.7347 -0.5504
18112THY    HP343262   4.631   0.801   3.909 -0.2405 -0.2461  1.1760
18112THY    HP443263   4.774   0.787   4.009 -0.5529 -0.7814 -1.4986
18112THY    CP343264   4.714   0.942   4.218  0.1204  0.4980  0.3840
18112THY    HP543265   4.653   0.954   4.308  1.5746  1.6181 -0.3019
18112THY    HP643266   4.759   1.037   4.186  0.9241 -0.6816 -0.3607
18112THY    HP743267   4.795   0.869   4.232  0.6198  1.6207  1.1235
18112THY    CA343268   4.510   0.712   4.249  0.1393 -0.1871 -0.2393
18112THY    HA343269   4.597   0.741   4.307 -0.7801 -0.2123  2.8522
18112THY    CA443270   4.422   0.609   4.273 -0.6714  0.0884  0.8610
18112THY    HA443271   4.423   0.547   4.363 -1.4698 -2.2521 -2.8857
18112THY    CA543272   4.327   0.578   4.182  0.6997  0.2516 -0.3793
18112THY    CM143273   4.233   0.460   4.195 -0.4910  0.0267 -0.3773
18112THY    HM143274   4.147   0.503   4.247  0.5292  1.1630  0.3540
18112THY    HM243275   4.281   0.376   4.246  1.4746 -1.0507  0.0240
18112THY    HM343276   4.195   0.420   4.100 -4.4180  0.1005  2.5594
18112THY    CA643277   4.309   0.657   4.070 -0.1172 -0.5370  0.1138
18112THY    HA643278   4.226   0.629   4.006  0.8972 -0.7178 -2.7930
18113THY      O43279   9.082   5.201   5.945 -0.6329  0.5856  0.7032
18113THY     HO43280   9.176   5.219   5.925 -0.4310  0.7530 -0.1235
18113THY    CA143281   9.090   5.067   5.927  0.1677  0.2276 -1.1166
18113THY    CA243282   9.013   4.981   6.008 -0.3431  0.0770 -0.0089
18113THY    CP143283   8.920   5.034   6.115 -0.6207  0.7246  0.3380
18113THY    HP143284   8.953   5.132   6.150 -1.1484 -1.4768  1.3721
18113THY    CP243285   8.906   4.952   6.242  0.2614  0.3514  0.0006
18113THY    HP243286   8.999   4.937   6.298  1.5689 -1.3356  1.3649
18113THY    HP343287   8.856   4.855   6.227  1.5685 -0.2188 -0.6159
18113THY    HP443288   8.842   5.011   6.307 -0.4595 -0.0250 -0.3587
18113THY    CP343289   8.787   5.061   6.054 -0.1523 -0.2831 -0.2012
18113THY    HP543290   8.787   5.142   5.980 -1.2518  0.0965  0.1651
18113THY    HP643291   8.712   5.086   6.130 -1.1673 -2.2416  3.3879
18113THY    HP743292   8.742   4.971   6.011 -1.7303  1.3032 -0.2146
18113THY    CA343293   9.022   4.840   5.980 -0.3991  0.8342 -0.0178
18113THY    HA343294   8.967   4.761   6.030 -0.8283  1.3529  0.6084
18113THY    CA443295   9.103   4.797   5.872  0.4232  0.1081  0.0105
18113THY    HA443296   9.112   4.693   5.839  0.1201 -2.6077  0.7522
18113THY    CA543297   9.173   4.884   5.789  0.3496  0.3386 -0.4890
18113THY    CM143298   9.231   4.842   5.656 -0.5066 -0.0688 -0.1147
18113THY    HM143299   9.181   4.889   5.571  0.8208  0.3093  2.1408
18113THY    HM243300   9.237   4.734   5.636 -0.7875  0.4818 -0.2398
18113THY    HM343301   9.330   4.884   5.634  0.2924 -2.7264 -3.0207
18113THY    CA643302   9.172   5.021   5.821  0.3607  0.6542  0.5523
18113THY    HA643303   9.227   5.098   5.767 -0.3738 -1.2054 -0.1732
18114THY      O43304   6.542   5.339   6.250  0.1621  0.0650  0.4168
18114THY     HO43305   6.490   5.351   6.331 -0.8683 -0.5288  0.0897
18114THY    CA143306   6.618   5.228   6.269  0.0202  0.7169  0.2325
18114THY    CA243307   6.687   5.167   6.160 -0.0637 -0.0086 -0.6254
18114THY    CP143308   6.707   5.243   6.031  0.3591 -0.3327  0.4822
18114THY    HP143309   6.665   5.343   6.044 -0.4636 -0.5472  0.1724
18114THY    CP243310   6.643   5.173   5.918  0.1902  0.4366 -0.3083
18114THY    HP243311   6.644   5.241   5.832 -3.3493 -0.0512 -0.6811
18114THY    HP343312   6.538   5.147   5.935  0.4194 -0.0139 -1.5689
18114THY    HP443313   6.692   5.080   5.889 -2.5864 -2.2196 -1.0963
18114THY    CP343314   6.852   5.273   6.006 -0.0587 -0.5323  0.5579
18114THY    HP543315   6.894   5.328   6.091  0.2125 -1.0664  1.1923
18114THY    HP643316   6.869   5.326   5.911  0.3151 -0.1316  1.1645
18114THY    HP743317   6.912   5.182   5.994  0.5161 -1.2117  1.0109
18114THY    CA343318   6.745   5.042   6.174  0.1103 -0.2911 -0.4259
18114THY    HA343319   6.797   5.000   6.088  0.6582 -0.5191  0.6832
18114THY    CA443320   6.740   4.976   6.294  0.4857 -0.0008  0.0591
18114THY    HA443321   6.788   4.880   6.307  0.8180  0.1195  0.2398
18114THY    CA543322   6.684   5.040   6.406 -0.7528  0.1498 -0.8090
18114THY    CM143323   6.672   4.957   6.527 -0.2177  0.5705 -0.0248
18114THY    HM143324   6.640   5.021   6.610 -2.9503 -1.7072  1.8150
18114THY    HM243325   6.765   4.902   6.547 -0.9117  0.8012 -1.1614
18114THY    HM343326   6.588   4.887   6.513  1.2371 -3.3303 -1.3092
18114THY    CA643327   6.618   5.162   6.389 -0.1819  0.9686  0.3240
18114THY    HA643328   6.569   5.209   6.474 -1.2653  0.0731  0.8407
18115THY      O43329   0.101   2.934   4.492  0.2965  0.1819  0.0652
18115THY     HO43330   0.031   2.928   4.560 -0.1647 -0.3777 -1.4691
18115THY    CA143331   0.217   2.951   4.562  0.4130  0.5670  0.0617
18115THY    CA243332   0.341   2.973   4.494 -0.3671  1.1451  0.0705
18115THY    CP143333   0.342   2.977   4.341  1.0043 -0.2342 -0.4007
18115THY    HP143334   0.254   3.032   4.306  1.6787  1.0224  1.6002
18115THY    CP243335   0.342   2.830   4.281  0.0457 -0.3829 -0.0442
18115THY    HP243336   0.437   2.776   4.292 -0.0696 -3.0181 -0.9442
18115THY    HP343337   0.321   2.820   4.174 -2.1057  0.0295 -0.4433
18115THY    HP443338   0.267   2.766   4.329 -1.1909  0.1842  1.7642
18115THY    CP343339   0.454   3.063   4.279  0.2598  0.1729 -0.8438
18115THY    HP543340   0.421   3.079   4.176 -1.7846  1.0085  0.9598
18115THY    HP643341   0.555   3.024   4.295  0.5737 -0.4062 -0.2953
18115THY    HP743342   0.453   3.165   4.319 -0.5479 -1.0742 -0.3398
18115THY    CA343343   0.455   3.006   4.565 -0.0501  0.1913 -0.2680
18115THY    HA343344   0.548   3.037   4.518 -0.8724  0.4566  2.9636
18115THY    CA443345   0.442   3.035   4.702  0.3633 -0.5252  0.4748
18115THY    HA443346   0.530   3.062   4.759  0.0754 -0.6686  1.7980
18115THY    CA543347   0.313   3.026   4.768 -0.3061 -0.2069 -0.0533
18115THY    CM143348   0.301   3.041   4.919  1.0707 -0.0940 -0.4498
18115THY    HM143349   0.401   3.035   4.964  1.2694 -0.6318 -1.5771
18115THY    HM243350   0.237   2.963   4.962 -0.9682 -0.9542  0.6725
18115THY    HM343351   0.267   3.143   4.939  0.9521  2.8601 -0.9873
18115THY    CA643352   0.200   2.979   4.698 -0.5120 -0.3215  0.1385
18115THY    HA643353   0.104   2.973   4.749  0.9101  2.7417  1.1725
18116THY      O43354   7.139   3.806   5.262  0.7272  0.0232  0.5207
18116THY     HO43355   7.159   3.838   5.352  2.7486  0.3632 -1.4605
18116THY    CA143356   7.131   3.674   5.275 -0.0881  0.1105 -0.0464
18116THY    CA243357   7.063   3.588   5.190  1.0396  0.8648 -0.4456
18116THY    CP143358   6.995   3.644   5.072  0.2478  0.0256 -0.0257
18116THY    HP143359   7.048   3.737   5.050  1.9211 -0.5434 -1.0696
18116THY    CP243360   6.853   3.683   5.105 -0.7195 -0.2701  0.2155
18116THY    HP243361   6.846   3.742   5.197 -0.8604 -0.1607  0.0298
18116THY    HP343362   6.803   3.587   5.124 -1.5402 -1.5183  0.3671
18116THY    HP443363   6.803   3.734   5.022  2.0597 -1.3061  1.4229
18116THY    CP343364   6.994   3.555   4.945 -0.5344  0.6150  0.2924
18116THY    HP543365   6.953   3.455   4.964 -0.4073  1.1361  0.3405
18116THY    HP643366   7.094   3.528   4.908 -1.0051  0.0129 -0.6969
18116THY    HP743367   6.950   3.610   4.861 -1.1191  1.6692  1.4737
18116THY    CA343368   7.042   3.451   5.225  0.4822 -0.4872  0.2764
18116THY    HA343369   6.973   3.396   5.163 -0.2079 -0.5293  1.1582
18116THY    CA443370   7.100   3.400   5.346  0.0789 -0.2159 -0.4962
18116THY    HA443371   7.089   3.298   5.382  2.1963 -0.8945 -1.0165
18116THY    CA543372   7.176   3.488   5.421 -0.0259 -0.3400  0.5216
18116THY    CM143373   7.228   3.447   5.556 -0.9895 -0.8723  0.2980
18116THY    HM143374   7.238   3.536   5.619  0.9678  1.3070 -1.3102
18116THY    HM243375   7.324   3.395   5.545 -1.3034 -0.2318 -0.4448
18116THY    HM343376   7.160   3.382   5.613 -0.7786 -0.3066  0.5618
18116THY    CA643377   7.196   3.619   5.385  0.2791  0.2568  0.0368
18116THY    HA643378   7.244   3.686   5.456  0.4945  0.1506 -0.0021
18117THY      O43379   3.255   0.770   4.476 -0.0658  0.4470  0.4888
18117THY     HO43380   3.317   0.698   4.499  0.3355  0.5932  0.8743
18117THY    CA143381   3.331   0.863   4.429 -0.7586  0.5170 -0.1527
18117THY    CA243382   3.293   0.947   4.320  0.2894  0.1449  0.1405
18117THY    CP143383   3.163   0.918   4.237  0.0739 -0.2993  0.3494
18117THY    HP143384   3.103   0.835   4.273 -0.3940  0.4244  0.9852
18117THY    CP243385   3.194   0.892   4.088  0.6456  0.2034 -0.0649
18117THY    HP243386   3.249   0.973   4.039 -2.2047 -0.2658  1.7527
18117THY    HP343387   3.102   0.881   4.029  0.3989  0.6034 -0.1955
18117THY    HP443388   3.257   0.803   4.085  0.9076 -4.4598  0.0586
18117THY    CP343389   3.063   1.035   4.243  0.0899 -0.0919 -0.6726
18117THY    HP543390   2.974   1.009   4.185  0.6077 -0.5707 -1.4010
18117THY    HP643391   3.108   1.121   4.192  0.3153  0.8717 -0.2019
18117THY    HP743392   3.033   1.070   4.343  1.4839  1.3576 -3.2835
18117THY    CA343393   3.391   1.042   4.273  0.7854 -0.0653  0.4470
18117THY    HA343394   3.362   1.120   4.204  0.8800  1.4144  1.8296
18117THY    CA443395   3.518   1.055   4.329  0.1335 -0.1565  0.4411
18117THY    HA443396   3.580   1.133   4.286 -1.0658  1.0898  2.1723
18117THY    CA543397   3.548   0.973   4.439 -0.2218  0.4503  0.1773
18117THY    CM143398   3.679   0.997   4.506 -0.0330 -0.1591  0.1406
18117THY    HM143399   3.741   0.908   4.489 -0.8384  3.3415 -1.2159
18117THY    HM243400   3.673   1.002   4.615  2.1859  0.2686 -3.2083
18117THY    HM343401   3.741   1.078   4.464  0.8204 -0.2856 -0.5649
18117THY    CA643402   3.458   0.875   4.487 -0.1255  0.2261 -0.7800
18117THY    HA643403   3.474   0.814   4.576 -1.1666  1.0721  0.1478
18118THY      O43404   8.487   4.606   5.975  0.1241  0.4671  0.6834
18118THY     HO43405   8.571   4.655   5.977  1.3199  1.9420 -1.2887
18118THY    CA143406   8.389   4.694   5.993 -0.1662  0.0103  0.0748
18118THY    CA243407   8.251   4.660   5.976 -0.2193 -0.0315  0.5167
18118THY    CP143408   8.201   4.519   5.934 -0.5540  0.1175 -0.0888
18118THY    HP143409   8.291   4.460   5.951  0.1467 -2.4201  0.1253
18118THY    CP243410   8.156   4.506   5.785 -0.1542 -0.0746  1.1320
18118THY    HP243411   8.241   4.521   5.717  0.7339  0.7500 -0.0087
18118THY    HP343412   8.088   4.585   5.752 -2.4477 -0.1901 -0.7806
18118THY    HP443413   8.100   4.413   5.769  0.7959  3.1536 -0.1371
18118THY    CP343414   8.092   4.473   6.033 -0.9747 -0.1777 -0.4183
18118THY    HP543415   8.123   4.482   6.138 -0.6130 -0.4684  2.7832
18118THY    HP643416   8.069   4.366   6.021  1.5565 -2.3250 -0.8053
18118THY    HP743417   7.997   4.527   6.026 -0.5365  0.3033  0.4379
18118THY    CA343418   8.155   4.760   5.997 -0.4670  0.0974 -0.6102
18118THY    HA343419   8.052   4.731   5.980 -0.4126 -0.2268 -0.6097
18118THY    CA443420   8.194   4.896   6.038  0.6567 -0.4033  0.2928
18118THY    HA443421   8.119   4.972   6.055  0.3414  0.3874 -0.1798
18118THY    CA543422   8.325   4.925   6.061 -0.3721 -0.0019 -0.1952
18118THY    CM143423   8.367   5.058   6.114 -0.2981 -0.2006  0.3508
18118THY    HM143424   8.304   5.139   6.077 -3.3625 -0.7340 -2.0597
18118THY    HM243425   8.462   5.091   6.071  1.1417 -0.0656 -3.1600
18118THY    HM343426   8.370   5.052   6.224 -0.8838 -0.2400 -1.3734
18118THY    CA643427   8.420   4.824   6.043  0.3998  0.0802  0.1106
18118THY    HA643428   8.526   4.848   6.045  0.9182 -0.3211 -1.9827
18119THY      O43429   0.607   6.777   3.861  0.2307  0.2232 -0.2965
18119THY     HO43430   0.559   6.772   3.776  0.5279 -0.0012  0.5967
18119THY    CA143431   0.557   6.889   3.909 -0.3476 -0.1078 -0.1458
18119THY    CA243432   0.501   6.881   4.037 -0.0993  0.3135 -0.6197
18119THY    CP143433   0.512   6.759   4.132  0.0449  0.4487 -0.4713
18119THY    HP143434   0.535   6.662   4.087  1.2101  1.6004 -0.7619
18119THY    CP243435   0.385   6.729   4.224 -0.0488  0.4047  0.0178
18119THY    HP243436   0.290   6.730   4.168  0.1651  0.0075  1.8160
18119THY    HP343437   0.372   6.810   4.296  0.9798 -0.2932  0.8352
18119THY    HP443438   0.389   6.639   4.286 -0.2977 -0.3088 -0.4928
18119THY    CP343439   0.631   6.772   4.228 -0.0449 -0.0057  0.2219
18119THY    HP543440   0.628   6.875   4.264 -0.9931  1.7082 -0.3637
18119THY    HP643441   0.722   6.732   4.183 -0.7396 -1.4541  0.2024
18119THY    HP743442   0.620   6.706   4.315 -0.2214  0.1181  0.4127
18119THY    CA343443   0.429   6.997   4.075  0.4395 -1.2745  0.3723
18119THY    HA343444   0.390   7.003   4.176 -0.2116 -1.4153 -1.0599
18119THY    CA443445   0.436   7.114   3.997 -0.1178 -0.8027  0.3502
18119THY    HA443446   0.390   7.202   4.040  0.1212  1.7981 -0.7034
18119THY    CA543447   0.486   7.115   3.871  0.0353  0.3631 -0.5018
18119THY    CM143448   0.466   7.235   3.779 -0.3236  0.9305  0.0705
18119THY    HM143449   0.437   7.199   3.680  1.1354  0.4294  0.2099
18119THY    HM243450   0.564   7.283   3.766 -0.3060 -2.1322 -0.6079
18119THY    HM343451   0.398   7.310   3.822  0.3644  1.1818  0.5623
18119THY    CA643452   0.551   7.003   3.826 -0.1639 -0.0104  0.5726
18119THY    HA643453   0.596   7.003   3.727  0.1764  0.1439  0.4162
18120THY      O43454   6.933   6.279   5.564  0.0679 -0.6034 -0.5112
18120THY     HO43455   6.919   6.211   5.632  1.0492  0.8108  0.6440
18120THY    CA143456   6.985   6.217   5.461  0.0778  0.6789 -0.4559
18120THY    CA243457   6.971   6.077   5.435  1.0249  0.1081  0.2582
18120THY    CP143458   6.893   5.994   5.531  0.0415 -0.2573  0.0219
18120THY    HP143459   6.840   6.059   5.602  2.8292  2.6228 -0.6027
18120THY    CP243460   6.975   5.912   5.623 -0.0607 -0.3670  0.2613
18120THY    HP243461   6.929   5.831   5.680 -0.2225  2.0510  1.9114
18120THY    HP343462   7.026   5.980   5.693 -1.7117  1.3440 -0.1705
18120THY    HP443463   7.053   5.864   5.563  0.2015  0.7109 -0.6969
18120THY    CP343464   6.793   5.913   5.456  0.2025  0.0304  0.2181
18120THY    HP543465   6.843   5.841   5.391  2.8992 -0.3708  2.2657
18120THY    HP643466   6.738   5.973   5.382  1.5564 -0.8721  0.3943
18120THY    HP743467   6.735   5.863   5.534  0.9549 -0.8549 -2.1892
18120THY    CA343468   7.040   6.014   5.332 -0.9463 -0.2961 -0.1481
18120THY    HA343469   7.039   5.907   5.312 -1.5129 -3.7483  0.3899
18120THY    CA443470   7.115   6.098   5.244 -0.1357  0.4330  0.5017
18120THY    HA443471   7.167   6.048   5.162 -0.9341  0.8089 -1.0169
18120THY    CA543472   7.125   6.235   5.268  0.0151 -0.0168  0.7293
18120THY    CM143473   7.208   6.324   5.176  0.2075 -0.2696 -0.1521
18120THY    HM143474   7.254   6.255   5.105  1.7266  0.3716  0.1735
18120THY    HM243475   7.283   6.379   5.234  0.2093 -0.1551 -0.2742
18120THY    HM343476   7.143   6.391   5.119 -1.1294  2.5816  1.1660
18120THY    CA643477   7.065   6.297   5.371  0.3126 -0.1171  1.2353
18120THY    HA643478   7.081   6.403   5.391  0.2420  3.1597  0.7177
18121THY      O43479   3.237   5.668   4.668  0.3653  0.2863 -0.5715
18121THY     HO43480   3.330   5.658   4.642  0.4065 -0.5485  1.4795
18121THY    CA143481   3.188   5.777   4.596 -0.3216 -0.0112 -0.5453
18121THY    CA243482   3.172   5.907   4.646 -0.3930 -0.5772 -0.4861
18121THY    CP143483   3.220   5.918   4.797  0.4607  0.0611 -1.2121
18121THY    HP143484   3.315   5.863   4.802 -0.0186 -2.0220 -2.3536
18121THY    CP243485   3.121   5.860   4.902 -0.1602 -0.2086 -0.0715
18121THY    HP243486   3.052   5.791   4.853  0.1573  2.0349 -2.1255
18121THY    HP343487   3.064   5.944   4.944  0.1711 -1.4551  0.8160
18121THY    HP443488   3.176   5.813   4.985  0.9065 -1.4784 -1.1422
18121THY    CP343489   3.251   6.064   4.835 -0.0254  0.3491  0.3747
18121THY    HP543490   3.314   6.100   4.753  0.3017  0.4824  0.1111
18121THY    HP643491   3.308   6.062   4.928  0.5198  0.0273 -1.8774
18121THY    HP743492   3.162   6.127   4.842 -1.3270  2.1943 -1.5362
18121THY    CA343493   3.141   6.014   4.566 -0.0220  0.5037 -0.6819
18121THY    HA343494   3.130   6.115   4.602 -0.7071 -0.5950 -0.3469
18121THY    CA443495   3.110   5.990   4.433 -0.1382  0.2048  0.0616
18121THY    HA443496   3.072   6.075   4.376  0.4003 -1.9328 -1.0635
18121THY    CA543497   3.116   5.862   4.382 -0.4071  0.1672 -0.0488
18121THY    CM143498   3.093   5.834   4.238  0.2465  0.5682 -0.1442
18121THY    HM143499   3.059   5.927   4.189  0.8815 -1.4556 -0.9206
18121THY    HM243500   3.012   5.763   4.217 -0.0296  1.5518 -0.1303
18121THY    HM343501   3.187   5.801   4.193 -1.3382 -2.6711 -0.7090
18121THY    CA643502   3.156   5.756   4.463  0.3211 -0.2441 -0.1184
18121THY    HA643503   3.183   5.662   4.416  2.2811 -2.9736  1.6538
18122THY      O43504   1.090   3.324   6.472  0.0625  0.4266  0.3575
18122THY     HO43505   1.141   3.244   6.456 -1.5823 -0.4552 -0.5797
18122THY    CA143506   1.084   3.343   6.603 -0.0020 -0.0891 -0.3794
18122THY    CA243507   1.042   3.459   6.667 -0.0598 -0.1396 -0.6721
18122THY    CP143508   1.011   3.583   6.590 -0.3720  0.3916 -0.5759
18122THY    HP143509   0.990   3.563   6.485  0.0657 -0.3990  2.5789
18122THY    CP243510   1.138   3.674   6.583  0.0161 -0.3324 -0.3650
18122THY    HP243511   1.181   3.713   6.676  1.6334 -2.2834  2.9253
18122THY    HP343512   1.095   3.755   6.524 -0.3592  0.6641  0.1804
18122THY    HP443513   1.226   3.628   6.535  0.8614  0.8268 -0.0128
18122THY    CP343514   0.877   3.656   6.638 -0.1855  0.9496  0.4988
18122THY    HP543515   0.789   3.592   6.623 -0.4779  1.4956  0.7710
18122THY    HP643516   0.863   3.746   6.575 -1.3706 -1.2388 -1.0957
18122THY    HP743517   0.886   3.690   6.741  0.8697  0.1664  2.8466
18122THY    CA343518   1.031   3.464   6.811  0.3105  0.1908 -0.4629
18122THY    HA343519   1.011   3.558   6.861 -0.3485  0.0234 -0.5032
18122THY    CA443520   1.051   3.344   6.877 -0.0406 -0.1905 -0.9765
18122THY    HA443521   1.051   3.350   6.986  2.3631  0.0215 -2.9729
18122THY    CA543522   1.100   3.235   6.816  0.2794 -0.4017  0.6064
18122THY    CM143523   1.133   3.113   6.897  0.1228  0.0521  0.1205
18122THY    HM143524   1.051   3.041   6.886  0.8157 -1.4940 -0.4728
18122THY    HM243525   1.167   3.150   6.994  1.0700 -0.9495  2.0542
18122THY    HM343526   1.222   3.056   6.868 -2.1583 -0.7833 -3.2765
18122THY    CA643527   1.117   3.232   6.676  0.2955  0.3819  0.7140
18122THY    HA643528   1.139   3.135   6.631 -0.8715  1.7023 -0.2050
18123THY      O43529   5.609   4.819   4.766  0.6657 -0.2169 -0.4737
18123THY     HO43530   5.687   4.844   4.714  0.1263 -0.4803  0.7296
18123THY    CA143531   5.508   4.829   4.675  1.4842 -0.8864  0.0824
18123THY    CA243532   5.371   4.798   4.712 -0.2120 -0.0629 -0.6065
18123THY    CP143533   5.324   4.771   4.860 -0.7604  0.2216 -0.1988
18123THY    HP143534   5.403   4.786   4.935 -0.2647 -0.3688  0.2320
18123THY    CP243535   5.270   4.630   4.881  0.3081 -0.3904  0.1593
18123THY    HP243536   5.281   4.592   4.983  0.7036 -0.9420 -1.2875
18123THY    HP343537   5.333   4.556   4.830 -1.2225 -0.3757 -1.2146
18123THY    HP443538   5.173   4.598   4.841  2.6559 -3.7358 -3.7395
18123THY    CP343539   5.217   4.860   4.899 -0.1268 -0.7178 -0.0922
18123THY    HP543540   5.249   4.963   4.883 -0.1656  0.6775  0.1559
18123THY    HP643541   5.184   4.849   5.003 -0.8586 -0.9511 -0.1580
18123THY    HP743542   5.124   4.843   4.845 -0.7696  0.1280  0.6378
18123THY    CA343543   5.277   4.788   4.606  0.7825  0.2013 -0.1434
18123THY    HA343544   5.172   4.769   4.626  0.4609  1.0524  2.2816
18123THY    CA443545   5.319   4.818   4.477 -0.0880 -0.0840 -0.1086
18123THY    HA443546   5.247   4.820   4.396  0.5814 -0.7008  2.0796
18123THY    CA543547   5.451   4.848   4.442 -0.1916  0.1767 -0.2217
18123THY    CM143548   5.482   4.881   4.297  0.1375  0.2081 -0.0690
18123THY    HM143549   5.493   4.791   4.235 -1.9963  0.7053 -0.7388
18123THY    HM243550   5.570   4.945   4.293  1.0701 -0.1376 -1.3264
18123THY    HM343551   5.395   4.932   4.254 -1.5237  3.0887 -0.2341
18123THY    CA643552   5.546   4.851   4.548 -0.1134  0.2540  0.2273
18123THY    HA643553   5.649   4.881   4.532  0.8530  0.8768 -2.4370
18124THY      O43554   6.928   0.635   5.961 -0.7170 -0.3087  0.2208
18124THY     HO43555   6.941   0.709   6.023  0.4498  1.0541 -1.0631
18124THY    CA143556   6.876   0.681   5.846 -0.3037 -0.1317  0.0638
18124THY    CA243557   6.850   0.589   5.740 -0.7041 -0.2252  0.2800
18124THY    CP143558   6.904   0.446   5.750 -0.2775  0.9458 -0.2172
18124THY    HP143559   6.951   0.419   5.845  0.1301  0.6006 -0.7702
18124THY    CP243560   7.014   0.419   5.642 -0.0911  0.2072  0.2391
18124THY    HP243561   7.053   0.317   5.647 -3.7013  1.4351 -1.2113
18124THY    HP343562   7.092   0.493   5.663 -1.4380  0.9292  1.4944
18124THY    HP443563   6.979   0.429   5.539 -1.0570  0.5977  1.0282
18124THY    CP343564   6.786   0.343   5.731 -1.3964  0.2192  0.1072
18124THY    HP543565   6.748   0.338   5.628  0.6197 -0.5640 -0.0030
18124THY    HP643566   6.703   0.375   5.795 -0.3877  1.4300  0.3890
18124THY    HP743567   6.816   0.243   5.766 -2.6681  2.0126  0.2979
18124THY    CA343568   6.781   0.638   5.629 -0.0286  0.0380  0.0549
18124THY    HA343569   6.762   0.575   5.543 -0.0901 -0.3767  0.6291
18124THY    CA443570   6.723   0.766   5.642 -0.1106 -0.4095  0.3573
18124THY    HA443571   6.656   0.809   5.568 -2.8380  0.9569 -1.2813
18124THY    CA543572   6.764   0.855   5.740  0.2439  0.9542 -0.1045
18124THY    CM143573   6.730   0.999   5.723 -0.3592  0.3531 -0.9956
18124THY    HM143574   6.809   1.042   5.661 -2.2147 -1.4684 -0.0669
18124THY    HM243575   6.717   1.056   5.816 -2.0675 -0.8053  0.6269
18124THY    HM343576   6.637   1.019   5.669 -0.0320  0.9204  2.8971
18124THY    CA643577   6.840   0.816   5.845 -0.3013 -0.1200 -0.1442
18124THY    HA643578   6.862   0.882   5.928 -1.0449  0.0265 -0.0743
18125THY      O43579   6.174   1.367   2.446 -0.6665  0.1518 -0.1869
18125THY     HO43580   6.207   1.423   2.374 -1.0305  0.1370  0.0072
18125THY    CA143581   6.280   1.341   2.527 -0.3514 -0.3632  1.0910
18125THY    CA243582   6.272   1.281   2.655  0.4757  0.2399 -1.0785
18125THY    CP143583   6.138   1.251   2.720 -0.6746  0.7252  0.0546
18125THY    HP143584   6.066   1.254   2.638  0.3188 -0.1560  0.4527
18125THY    CP243585   6.101   1.366   2.822  0.1710 -1.1467 -0.4830
18125THY    HP243586   6.115   1.467   2.782 -2.8422 -3.3647 -0.8027
18125THY    HP343587   6.174   1.351   2.903 -0.3592 -0.8457 -1.5820
18125THY    HP443588   5.999   1.353   2.862  0.1683 -1.7806 -3.0419
18125THY    CP343589   6.136   1.112   2.779 -0.0939 -0.5771 -0.3877
18125THY    HP543590   6.032   1.098   2.809  0.3130  2.7979  2.4316
18125THY    HP643591   6.206   1.111   2.863  1.2307 -1.6369 -1.5849
18125THY    HP743592   6.167   1.037   2.706  1.1523 -0.8284  0.3353
18125THY    CA343593   6.400   1.253   2.717  0.3614 -0.3822 -0.3468
18125THY    HA343594   6.404   1.204   2.814  1.1614 -0.4453 -0.4141
18125THY    CA443595   6.519   1.293   2.662 -0.3617  0.3768  0.3386
18125THY    HA443596   6.613   1.274   2.714  0.8252 -1.0035  2.1165
18125THY    CA543597   6.516   1.363   2.544  0.1171  0.3491 -0.0181
18125THY    CM143598   6.656   1.395   2.487 -0.2164  0.9102 -0.0339
18125THY    HM143599   6.655   1.504   2.478  1.5740  2.0515  0.1047
18125THY    HM243600   6.669   1.353   2.387  3.0371  0.7588  1.1007
18125THY    HM343601   6.722   1.362   2.568 -0.0428  0.5137 -0.6940
18125THY    CA643602   6.400   1.380   2.473  0.3655  0.5461 -0.3431
18125THY    HA643603   6.409   1.427   2.375  1.9504  1.7070  1.9213
18126THY      O43604   6.238   4.191   2.644 -0.1353 -0.1961  0.1763
18126THY     HO43605   6.191   4.108   2.625  2.0426 -0.0721 -1.1666
18126THY    CA143606   6.352   4.165   2.568  0.0362  0.1603 -0.5704
18126THY    CA243607   6.407   4.264   2.489  0.1172 -0.4254 -0.0293
18126THY    CP143608   6.350   4.405   2.490 -0.0190 -0.1433 -0.2022
18126THY    HP143609   6.266   4.418   2.560  0.9397  1.1029 -0.4337
18126THY    CP243610   6.296   4.423   2.348  0.2667  0.2086 -0.1811
18126THY    HP243611   6.374   4.406   2.272  0.2711  0.2241 -0.2338
18126THY    HP343612   6.259   4.525   2.331  1.6744 -0.1281  0.2963
18126THY    HP443613   6.224   4.352   2.305  1.3615 -3.1527  0.5375
18126THY    CP343614   6.449   4.519   2.511 -0.0158  0.3887  0.3980
18126THY    HP543615   6.398   4.614   2.491  0.9951  1.4296  1.1925
18126THY    HP643616   6.525   4.511   2.433  0.4348  0.9434 -1.3945
18126THY    HP743617   6.496   4.513   2.610 -0.2569  0.5922  1.7043
18126THY    CA343618   6.510   4.226   2.403 -0.0822 -0.0235 -0.2163
18126THY    HA343619   6.556   4.298   2.336 -0.0905  1.7900  1.5958
18126THY    CA443620   6.557   4.097   2.400  0.0412  0.8688  0.4281
18126THY    HA443621   6.646   4.074   2.343  0.4320  2.1149 -1.3840
18126THY    CA543622   6.493   3.998   2.477 -0.9445 -0.2216 -0.0157
18126THY    CM143623   6.556   3.860   2.469 -0.8950  0.0799 -0.7486
18126THY    HM143624   6.572   3.819   2.569  1.1988  1.5413  3.1382
18126THY    HM243625   6.651   3.859   2.414 -0.7675  0.3006 -1.5056
18126THY    HM343626   6.497   3.792   2.405  2.0874 -0.9692 -2.5657
18126THY    CA643627   6.393   4.030   2.567 -0.2673  0.6463 -0.3886
18126THY    HA643628   6.348   3.955   2.632  2.1732 -0.8425 -3.3686
18127THY      O43629   5.952   6.559   6.927 -0.4169 -0.6972 -0.2246
18127THY     HO43630   5.872   6.605   6.959 -1.2890 -4.8213  1.5061
18127THY    CA143631   5.975   6.463   7.025 -0.4851  0.6482 -1.0147
18127THY    CA243632   6.053   6.349   6.996 -0.2740  0.0942  0.0085
18127THY    CP143633   6.126   6.338   6.868 -0.7725  0.2236  0.1444
18127THY    HP143634   6.143   6.437   6.824 -0.6105 -0.0179  0.0104
18127THY    CP243635   6.051   6.255   6.762 -0.4035  0.1827 -0.1647
18127THY    HP243636   5.962   6.312   6.733  2.0909 -3.1908  2.4788
18127THY    HP343637   6.024   6.154   6.795 -0.0438 -2.0654 -1.0564
18127THY    HP443638   6.102   6.248   6.665 -0.2800  0.1663  0.8161
18127THY    CP343639   6.272   6.293   6.889 -0.9351  0.2504  0.1304
18127THY    HP543640   6.304   6.336   6.984 -1.5777  0.5987 -0.1443
18127THY    HP643641   6.341   6.316   6.807  0.1576  0.6069 -1.6357
18127THY    HP743642   6.281   6.184   6.896  1.6246  0.8691  0.3270
18127THY    CA343643   6.054   6.251   7.098  0.6064 -0.2446  0.7320
18127THY    HA343644   6.107   6.158   7.082 -0.8074  1.7353 -0.4938
18127THY    CA443645   5.965   6.264   7.212  0.1814  0.8489 -0.2557
18127THY    HA443646   5.957   6.178   7.278 -0.5760  0.6609 -0.3328
18127THY    CA543647   5.884   6.377   7.230  0.2387 -0.6352 -0.0326
18127THY    CM143648   5.799   6.384   7.348  0.2254  0.1244  0.5710
18127THY    HM143649   5.857   6.392   7.440 -0.7664  0.7234  1.0983
18127THY    HM243650   5.729   6.300   7.352 -0.0862 -0.1603  0.8136
18127THY    HM343651   5.740   6.476   7.348 -1.6362  1.9700 -0.5206
18127THY    CA643652   5.894   6.474   7.136  0.4545  0.3694 -0.4652
18127THY    HA643653   5.848   6.569   7.157 -2.4575  1.4373 -1.9978
18128THY      O43654   8.850   7.487   3.261  0.2450 -0.2434 -0.0488
18128THY     HO43655   8.765   7.467   3.304 -0.2607 -1.8297 -1.6821
18128THY    CA143656   8.894   7.592   3.334 -0.0740  0.1456 -0.6290
18128THY    CA243657   8.985   7.694   3.281  0.5212  0.6040  0.6158
18128THY    CP143658   9.010   7.696   3.129 -0.1917  0.9493  0.2033
18128THY    HP143659   8.939   7.636   3.071  0.7827 -1.6407  1.3605
18128THY    CP243660   9.146   7.636   3.099 -0.1019  0.4099  0.4884
18128THY    HP243661   9.220   7.699   3.149  0.8926 -0.2854 -0.0882
18128THY    HP343662   9.171   7.649   2.993 -2.7406 -0.3831 -0.2733
18128THY    HP443663   9.155   7.532   3.132  0.1828  1.5468  0.8604
18128THY    CP343664   8.986   7.831   3.063  0.5338 -0.3441  0.2431
18128THY    HP543665   8.883   7.860   3.089 -0.0968  0.2100 -2.2270
18128THY    HP643666   9.001   7.834   2.954  0.9170 -0.2778  1.0245
18128THY    HP743667   9.054   7.910   3.096  0.4506 -2.1942  1.1636
18128THY    CA343668   9.047   7.781   3.371  0.2904 -0.7752 -0.2466
18128THY    HA343669   9.123   7.855   3.348  1.1533  1.9005 -0.1980
18128THY    CA443670   9.008   7.777   3.507 -0.1579  0.9175 -0.3187
18128THY    HA443671   9.050   7.855   3.570  1.1913 -0.7201  0.3346
18128THY    CA543672   8.920   7.681   3.552  0.3276 -0.2161  0.0114
18128THY    CM143673   8.889   7.675   3.697  0.3534 -0.1139 -0.4777
18128THY    HM143674   8.976   7.697   3.760 -0.5276  1.2062 -0.6353
18128THY    HM243675   8.849   7.577   3.725  0.8370 -1.2028 -1.0088
18128THY    HM343676   8.811   7.748   3.722 -0.2775 -0.6362 -0.9556
18128THY    CA643677   8.869   7.585   3.471  0.1806 -0.4119 -0.2267
18128THY    HA643678   8.797   7.515   3.512 -1.1113 -0.0505  1.2495
18129THY      O43679   0.866   7.696   4.849 -0.5069 -0.2333 -0.5398
18129THY     HO43680   0.937   7.636   4.822 -0.5892 -0.0243 -0.7367
18129THY    CA143681   0.768   7.664   4.763  0.0691  0.9210  0.0610
18129THY    CA243682   0.643   7.739   4.752  0.0659 -0.0419  0.1586
18129THY    CP143683   0.607   7.851   4.850 -0.6816  0.8131  0.3940
18129THY    HP143684   0.683   7.862   4.929 -1.3169  1.8917 -2.2144
18129THY    CP243685   0.489   7.818   4.933 -0.2388  0.2022  0.1821
18129THY    HP243686   0.474   7.892   5.013 -0.8158  0.5201 -0.2624
18129THY    HP343687   0.505   7.730   4.996 -0.0044  0.5824  0.4947
18129THY    HP443688   0.395   7.799   4.879 -1.4505  2.5836 -1.0798
18129THY    CP343689   0.593   7.986   4.785  0.1726  0.1992 -0.3967
18129THY    HP543690   0.670   8.009   4.710  0.7930  0.3178 -2.0000
18129THY    HP643691   0.599   8.074   4.850 -1.5313 -0.0450 -0.0585
18129THY    HP743692   0.494   7.990   4.738  0.9624 -1.4978  0.5624
18129THY    CA343693   0.552   7.702   4.649 -0.9289  0.2345  0.2370
18129THY    HA343694   0.463   7.765   4.645 -0.5594 -0.2472  0.7389
18129THY    CA443695   0.586   7.596   4.563 -0.1816  0.2615 -0.3856
18129THY    HA443696   0.526   7.568   4.477 -0.6138  1.0381 -1.9829
18129THY    CA543697   0.708   7.530   4.558  0.0097 -0.3636 -0.4082
18129THY    CM143698   0.748   7.433   4.454 -0.0855  0.4725  0.0469
18129THY    HM143699   0.814   7.358   4.499  2.5578  0.0333  1.9799
18129THY    HM243700   0.804   7.479   4.372 -3.4135 -1.2768  1.3184
18129THY    HM343701   0.664   7.392   4.397 -0.4587  2.0561 -1.5083
18129THY    CA643702   0.797   7.567   4.664 -0.5442 -0.0183 -0.0987
18129THY    HA643703   0.893   7.518   4.661 -0.8033 -2.6417 -0.5725
18130THY      O43704   5.977   7.937   7.112 -0.3016  0.4700 -0.1022
18130THY     HO43705   6.042   7.953   7.042 -0.8699 -0.2418 -0.8220
18130THY    CA143706   5.984   8.041   7.204 -0.1141  0.8228 -0.3508
18130THY    CA243707   5.913   8.028   7.328 -0.7432 -0.6145 -0.1315
18130THY    CP143708   5.823   7.912   7.351 -0.0927 -0.7430  0.3651
18130THY    HP143709   5.825   7.845   7.265 -0.4270 -0.2766 -0.2572
18130THY    CP243710   5.680   7.962   7.364  0.6101  0.3604 -0.1341
18130THY    HP243711   5.645   8.003   7.459 -0.2644  0.5192 -1.2092
18130THY    HP343712   5.608   7.882   7.343 -0.8943  2.5082  0.5864
18130THY    HP443713   5.656   8.029   7.280 -0.8344  0.0789 -0.9680
18130THY    CP343714   5.868   7.826   7.478  0.3765  0.5174  0.8392
18130THY    HP543715   5.968   7.784   7.462  0.3798 -1.9944  1.6530
18130THY    HP643716   5.804   7.738   7.491  2.0813  1.7141 -0.2658
18130THY    HP743717   5.854   7.882   7.572 -0.0930  1.2160 -0.4181
18130THY    CA343718   5.933   8.132   7.427  0.4727 -0.2317 -0.6370
18130THY    HA343719   5.899   8.125   7.530  0.8314  0.0052  0.8614
18130THY    CA443720   6.011   8.245   7.392  0.1647 -0.6570 -0.4979
18130THY    HA443721   6.025   8.324   7.465 -2.4226 -1.7295  1.0912
18130THY    CA543722   6.076   8.253   7.269  0.3888  0.1231  0.2875
18130THY    CM143723   6.163   8.365   7.238  0.4747 -0.0380  0.0219
18130THY    HM143724   6.124   8.433   7.161  0.6068 -1.8503 -1.8592
18130THY    HM243725   6.254   8.336   7.183  0.9321 -1.9100  4.2075
18130THY    HM343726   6.190   8.436   7.317  1.0029  0.8654 -1.1541
18130THY    CA643727   6.054   8.155   7.169  0.5545 -0.2902  0.4929
18130THY    HA643728   6.100   8.166   7.071  0.6481 -0.5689 -1.9750
18131THY      O43729   1.853   4.981   4.547  0.6119 -0.1856 -0.0932
18131THY     HO43730   1.815   4.918   4.483  0.1388 -1.4932  1.4551
18131THY    CA143731   1.767   5.092   4.548 -0.3270  0.1602  0.6797
18131THY    CA243732   1.706   5.136   4.666 -0.4132  0.3533 -1.1792
18131THY    CP143733   1.736   5.074   4.801  0.3866 -0.3695  0.2890
18131THY    HP143734   1.804   4.988   4.798  1.0786  0.7923  0.7647
18131THY    CP243735   1.602   5.014   4.863 -0.1571 -0.3031 -0.4308
18131THY    HP243736   1.615   4.976   4.964  1.3805  0.1843  1.2430
18131THY    HP343737   1.580   4.931   4.794  1.8864 -0.8320 -0.5769
18131THY    HP443738   1.525   5.093   4.865  1.6520  0.3481  1.4116
18131THY    CP343739   1.784   5.180   4.899 -0.2013 -0.2574 -0.4798
18131THY    HP543740   1.709   5.259   4.910  2.0765 -2.4838  2.2538
18131THY    HP643741   1.876   5.229   4.863  0.3137  0.1229 -1.1513
18131THY    HP743742   1.808   5.130   4.993  0.9710  0.1267  0.7267
18131THY    CA343743   1.620   5.250   4.653 -0.7584  0.1103  0.0584
18131THY    HA343744   1.575   5.296   4.740 -1.1384 -0.1137  0.1172
18131THY    CA443745   1.601   5.315   4.531  0.7513 -1.1236  0.2296
18131THY    HA443746   1.539   5.402   4.517 -0.2088 -1.5822 -0.5037
18131THY    CA543747   1.657   5.258   4.418  0.1406 -0.0923 -0.4314
18131THY    CM143748   1.632   5.333   4.293  0.0869  0.0827  0.3962
18131THY    HM143749   1.529   5.369   4.293  0.2831  0.6221  0.9758
18131THY    HM243750   1.621   5.276   4.200 -0.3450  1.3823 -1.7649
18131THY    HM343751   1.705   5.415   4.282 -0.3595  0.5378  0.8586
18131THY    CA643752   1.737   5.146   4.423  0.4016  0.5110 -0.2771
18131THY    HA643753   1.774   5.105   4.329 -1.0178  0.1926 -0.8922
18132THY      O43754   5.038   7.261   1.977  0.4270 -0.2026  0.3520
18132THY     HO43755   5.124   7.306   1.980  0.2966 -1.9534  0.8230
18132THY    CA143756   4.961   7.289   2.089  0.6673 -0.3516  1.0095
18132THY    CA243757   4.870   7.193   2.137  0.4025  0.2186 -0.0134
18132THY    CP143758   4.868   7.052   2.074  0.4173  0.5670 -0.3563
18132THY    HP143759   4.959   7.020   2.022 -0.2050 -1.3323  0.7951
18132THY    CP243760   4.751   7.045   1.976  0.0140  1.1121  0.5930
18132THY    HP243761   4.653   7.072   2.017 -2.0626 -1.6147 -2.1974
18132THY    HP343762   4.726   6.945   1.940 -1.9052  0.9811  1.0853
18132THY    HP443763   4.758   7.120   1.896 -1.0364  0.7063  0.2636
18132THY    CP343764   4.842   6.940   2.185 -0.2245  0.2022 -0.0703
18132THY    HP543765   4.914   6.946   2.267 -0.6632  0.9411 -3.0922
18132THY    HP643766   4.864   6.840   2.147  1.2690  0.8493 -0.0121
18132THY    HP743767   4.746   6.944   2.237  0.5168  1.5243  3.2315
18132THY    CA343768   4.791   7.221   2.249  0.8300  0.0764  0.2495
18132THY    HA343769   4.720   7.152   2.291  0.5385 -0.0492  0.4715
18132THY    CA443770   4.801   7.350   2.313  0.3787  0.7917  0.4388
18132THY    HA443771   4.731   7.383   2.389  0.3881  0.8512  0.3216
18132THY    CA543772   4.895   7.441   2.260  0.3909  0.0576 -0.0004
18132THY    CM143773   4.913   7.577   2.322 -0.6715 -0.0344 -0.5240
18132THY    HM143774   5.020   7.597   2.335 -0.5285 -1.5771 -0.1126
18132THY    HM243775   4.856   7.588   2.415  1.7567  1.4928  0.0825
18132THY    HM343776   4.875   7.646   2.246  2.0305 -1.6801 -0.7112
18132THY    CA643777   4.975   7.409   2.153  0.4821 -0.3954 -0.1231
18132THY    HA643778   5.029   7.492   2.107  0.2042 -2.4441 -1.0068
18133THY      O43779   5.973   1.750   3.363 -0.0764 -0.5844  0.4091
18133THY     HO43780   5.910   1.687   3.325 -0.1615  1.2442 -0.6740
18133THY    CA143781   5.920   1.863   3.323 -0.1363 -0.5422 -0.3260
18133THY    CA243782   5.955   1.986   3.388  0.2292  0.6774 -0.2444
18133THY    CP143783   6.076   1.990   3.486  0.2366  1.0948  0.3959
18133THY    HP143784   6.138   1.900   3.479 -0.9273  1.5384 -0.4572
18133THY    CP243785   6.041   1.998   3.629 -0.4444 -0.0221 -0.4949
18133THY    HP243786   5.988   1.909   3.666  2.3181  5.2193 -0.3269
18133THY    HP343787   5.982   2.089   3.646  2.1732  1.8073  0.9697
18133THY    HP443788   6.131   2.000   3.692  1.1512 -2.2157  0.5270
18133THY    CP343789   6.161   2.116   3.453 -0.1516  0.5680  0.3113
18133THY    HP543790   6.241   2.133   3.525  0.7874 -0.7284  1.5992
18133THY    HP643791   6.111   2.212   3.464  0.5947 -0.4041  0.8286
18133THY    HP743792   6.193   2.106   3.349  0.4654  0.9356 -2.3595
18133THY    CA343793   5.887   2.103   3.340  0.5853  0.2164 -0.8270
18133THY    HA343794   5.919   2.196   3.385 -0.2642  2.6822 -1.6295
18133THY    CA443795   5.785   2.093   3.247 -0.3185  0.0933  0.1932
18133THY    HA443796   5.745   2.185   3.206 -0.1882 -0.9924 -0.2191
18133THY    CA543797   5.741   1.966   3.194 -0.4288  0.0136  0.5106
18133THY    CM143798   5.624   1.957   3.105  0.5260 -0.0187 -0.4335
18133THY    HM143799   5.609   1.867   3.044  2.0086 -2.3558  0.8117
18133THY    HM243800   5.611   2.036   3.031  2.0880  0.6820  0.5228
18133THY    HM343801   5.529   1.959   3.159 -1.0781 -2.6442  2.1764
18133THY    CA643802   5.813   1.853   3.230 -0.0713 -0.3220 -0.3399
18133THY    HA643803   5.798   1.760   3.177  1.4013  0.7357 -1.2252
18134THY      O43804   4.256   9.482   7.585  0.4151 -0.7806 -0.0260
18134THY     HO43805   4.197   9.549   7.547 -2.5782  1.4014 -1.2017
18134THY    CA143806   4.180   9.370   7.601 -0.4480 -0.4510  0.3857
18134THY    CA243807   4.237   9.268   7.681  0.0977  0.7525  0.5707
18134THY    CP143808   4.383   9.270   7.726  0.3139 -0.2707  0.1875
18134THY    HP143809   4.422   9.372   7.738  1.0138  0.6049 -0.1750
18134THY    CP243810   4.475   9.203   7.621  0.0093 -0.2007 -0.4244
18134THY    HP243811   4.583   9.200   7.640 -0.4691  2.9138 -0.8391
18134THY    HP343812   4.455   9.255   7.526  0.2117  0.2126  0.4151
18134THY    HP443813   4.447   9.098   7.613  0.5113  0.3886 -0.6062
18134THY    CP343814   4.409   9.210   7.858  0.6487  0.7400  0.1797
18134THY    HP543815   4.339   9.244   7.935 -1.2268 -0.0410 -1.6812
18134THY    HP643816   4.507   9.242   7.895  2.0320 -2.4850  0.0840
18134THY    HP743817   4.409   9.100   7.852  0.3078 -0.3360  0.2283
18134THY    CA343818   4.155   9.151   7.708 -0.0960 -0.5724 -0.4849
18134THY    HA343819   4.195   9.074   7.773 -1.3527 -0.1020 -0.7532
18134THY    CA443820   4.025   9.138   7.657 -0.4240 -0.7219  0.4628
18134THY    HA443821   3.964   9.051   7.678  0.4210  0.8059  0.1983
18134THY    CA543822   3.968   9.239   7.575 -0.1126 -0.2331 -0.8550
18134THY    CM143823   3.824   9.216   7.514 -1.0814 -0.2397  0.5690
18134THY    HM143824   3.748   9.204   7.592 -1.4593 -0.3255  2.0916
18134THY    HM243825   3.818   9.129   7.448 -1.3212 -1.2532  1.3321
18134THY    HM343826   3.797   9.308   7.460  0.0429 -1.6860  0.0886
18134THY    CA643827   4.047   9.358   7.554  0.0584 -0.8665 -0.8986
18134THY    HA643828   4.012   9.437   7.487  0.9336  0.8845  1.0502
18135THY      O43829   5.709   0.986   7.078  0.4290 -0.2566 -0.5594
18135THY     HO43830   5.636   1.025   7.027  0.0715  0.2322 -0.5818
18135THY    CA143831   5.817   1.061   7.081  0.1091 -0.1440  0.0321
18135THY    CA243832   5.926   1.020   7.156 -0.6410 -0.8223  0.7495
18135THY    CP143833   5.924   0.881   7.215  0.0557 -0.1704  0.1592
18135THY    HP143834   5.821   0.860   7.247 -0.3293 -1.4430 -0.0335
18135THY    CP243835   6.005   0.868   7.337 -0.5252  0.0122  0.2727
18135THY    HP243836   5.974   0.939   7.415  0.2337  0.4043  0.1899
18135THY    HP343837   6.111   0.881   7.315 -1.0938 -2.3660  1.2283
18135THY    HP443838   5.990   0.774   7.392  1.9941  0.5163  0.0908
18135THY    CP343839   5.963   0.765   7.115  0.1221 -0.4496 -0.1478
18135THY    HP543840   5.883   0.762   7.040 -0.5776  0.2872 -0.0213
18135THY    HP643841   5.973   0.677   7.180 -0.5639  0.5385  0.4869
18135THY    HP743842   6.067   0.782   7.082  0.5417  0.4676 -0.8306
18135THY    CA343843   6.040   1.104   7.167 -0.4232  0.8001 -0.3889
18135THY    HA343844   6.126   1.083   7.230 -0.9549  1.2564 -1.2344
18135THY    CA443845   6.041   1.223   7.095  0.3120  0.1897  0.3099
18135THY    HA443846   6.127   1.290   7.093  0.7071  0.3145 -0.1848
18135THY    CA543847   5.935   1.262   7.019  0.2762  0.1136  0.0439
18135THY    CM143848   5.931   1.395   6.952 -0.1287 -0.0540 -0.0123
18135THY    HM143849   5.843   1.407   6.888  1.8449 -2.4343  4.4024
18135THY    HM243850   6.008   1.410   6.876 -0.4694 -0.3234  0.4038
18135THY    HM343851   5.926   1.475   7.027 -2.0727 -1.4643  1.2854
18135THY    CA643852   5.822   1.179   7.004 -0.4805  0.3434  0.5826
18135THY    HA643853   5.746   1.198   6.928 -0.5943  0.0509 -0.9243
18136THY      O43854   0.689   0.549   4.830 -0.5110 -0.1862 -0.4914
18136THY     HO43855   0.593   0.565   4.823 -0.3425 -1.1986  0.1254
18136THY    CA143856   0.720   0.529   4.697  0.1045  0.5072  0.1936
18136THY    CA243857   0.854   0.530   4.648  0.0607 -0.4130  0.4177
18136THY    CP143858   0.966   0.561   4.747 -0.2378  0.1074 -0.4853
18136THY    HP143859   0.931   0.591   4.847 -0.0496  0.2624 -0.7790
18136THY    CP243860   1.046   0.685   4.705  0.4545 -0.9322  0.8438
18136THY    HP243861   1.099   0.658   4.614  2.6519  1.1130 -2.4927
18136THY    HP343862   1.129   0.698   4.777 -0.7586  0.5450  0.7019
18136THY    HP443863   0.986   0.776   4.696 -1.4682 -0.3210 -0.3132
18136THY    CP343864   1.040   0.429   4.774 -0.1278  0.2762 -0.7434
18136THY    HP543865   0.997   0.352   4.840  2.2055  0.9640 -1.5541
18136THY    HP643866   1.130   0.449   4.834  0.2868 -0.4705 -0.3512
18136THY    HP743867   1.066   0.370   4.686  0.0785  1.4454 -2.4942
18136THY    CA343868   0.874   0.501   4.517  0.0338  0.8462  0.0718
18136THY    HA343869   0.972   0.500   4.471 -1.7795 -3.6693  1.2590
18136THY    CA443870   0.767   0.458   4.435  0.3281 -0.3113  0.5535
18136THY    HA443871   0.781   0.433   4.331 -0.8790 -0.3664  0.0033
18136THY    CA543872   0.639   0.459   4.483 -0.0339  0.1677 -0.3213
18136THY    CM143873   0.523   0.441   4.393  0.0365  0.3058  0.2224
18136THY    HM143874   0.548   0.355   4.329  4.0934  0.6083  0.9788
18136THY    HM243875   0.515   0.537   4.340 -0.8490  2.7492  1.5735
18136THY    HM343876   0.424   0.427   4.439  0.2567  0.5383 -0.6161
18136THY    CA643877   0.614   0.498   4.614 -0.6943  0.7423 -0.7234
18136THY    HA643878   0.512   0.493   4.653 -0.7009  0.5816 -2.0389
18137THY      O43879   2.821   6.645   6.476 -0.1156  0.2124  0.0915
18137THY     HO43880   2.818   6.554   6.508 -0.5859  0.6373  0.2544
18137THY    CA143881   2.698   6.675   6.429  0.0437 -0.0950 -0.6305
18137THY    CA243882   2.640   6.808   6.445 -0.2818 -0.2983 -0.7296
18137THY    CP143883   2.697   6.925   6.531  0.4500  0.6960  0.8072
18137THY    HP143884   2.782   6.884   6.587  1.7275 -2.7344 -1.6983
18137THY    CP243885   2.593   6.998   6.625  0.8282  0.3493  0.3795
18137THY    HP243886   2.545   6.931   6.697  0.1992  0.3420  0.8184
18137THY    HP343887   2.510   7.047   6.573  1.5400 -1.3889 -0.1707
18137THY    HP443888   2.637   7.078   6.686 -1.7559 -0.4831  2.6013
18137THY    CP343889   2.768   7.026   6.437  0.2652 -0.4000  0.3629
18137THY    HP543890   2.827   6.977   6.359  1.5166 -0.9012  2.5058
18137THY    HP643891   2.825   7.086   6.509 -2.3136  2.4425 -0.3620
18137THY    HP743892   2.696   7.089   6.383  1.4227 -2.1628  0.2315
18137THY    CA343893   2.517   6.836   6.386  0.3581 -0.8575  0.6797
18137THY    HA343894   2.472   6.933   6.405  1.8789 -1.2196  1.4742
18137THY    CA443895   2.453   6.739   6.310  0.3646 -0.5137 -0.5124
18137THY    HA443896   2.349   6.752   6.280 -0.9828  2.8488 -2.1903
18137THY    CA543897   2.510   6.613   6.295  0.8042 -0.8220  0.3864
18137THY    CM143898   2.448   6.516   6.202 -0.3442  0.5012 -0.3006
18137THY    HM143899   2.508   6.507   6.111 -0.7158  0.0957  0.9797
18137THY    HM243900   2.352   6.559   6.172 -0.5498 -1.0014 -1.7137
18137THY    HM343901   2.441   6.418   6.251 -1.7796  1.7290  0.3585
18137THY    CA643902   2.634   6.579   6.345 -0.2270  0.1057  0.0408
18137THY    HA643903   2.684   6.483   6.327  2.1222  1.4893  0.9202
18138THY      O43904   3.429   3.038   3.664 -0.1342 -0.6093 -0.1762
18138THY     HO43905   3.430   3.135   3.662  0.1604  0.4014 -0.1470
18138THY    CA143906   3.560   3.000   3.639 -0.2433 -0.1499 -0.0284
18138THY    CA243907   3.593   2.865   3.611  0.0626  0.1566  0.1823
18138THY    CP143908   3.480   2.778   3.572  0.4148  0.3732  0.3812
18138THY    HP143909   3.392   2.833   3.536 -0.3599  1.8149  0.1312
18138THY    CP243910   3.450   2.693   3.690 -0.6357  0.1093 -0.1267
18138THY    HP243911   3.442   2.759   3.777  0.2253  0.0585  0.0508
18138THY    HP343912   3.529   2.623   3.719  0.6216  0.6582  1.4516
18138THY    HP443913   3.360   2.634   3.670  0.1561  1.3462 -1.8166
18138THY    CP343914   3.516   2.693   3.452 -0.0212  0.1040  0.3245
18138THY    HP543915   3.571   2.745   3.374 -0.1261  0.4296  0.9374
18138THY    HP643916   3.427   2.650   3.405  1.1352 -2.7206  0.7916
18138THY    HP743917   3.576   2.608   3.486  0.9156 -0.1128  0.8842
18138THY    CA343918   3.728   2.830   3.599  0.6402 -0.4042  0.1882
18138THY    HA343919   3.758   2.730   3.569  0.0123  0.8218 -0.3956
18138THY    CA443920   3.831   2.927   3.615  0.2806  0.3817 -0.3784
18138THY    HA443921   3.937   2.904   3.615  0.8812  1.2417  2.0141
18138THY    CA543922   3.795   3.061   3.647 -0.0815 -0.0823 -0.0252
18138THY    CM143923   3.894   3.165   3.679 -0.7277  0.0513  0.0108
18138THY    HM143924   3.995   3.143   3.643 -1.2021 -0.7158 -1.0511
18138THY    HM243925   3.914   3.169   3.787  1.5501 -0.2800 -0.8362
18138THY    HM343926   3.857   3.259   3.638 -1.4177 -0.5846 -0.5207
18138THY    CA643927   3.659   3.101   3.653 -0.3668  0.1581  0.2488
18138THY    HA643928   3.636   3.200   3.689  0.7248  3.3554 -0.5590
18139THY      O43929   9.213   0.887   5.656  0.3128 -0.2214 -0.0023
18139THY     HO43930   9.183   0.826   5.586  2.5627  0.6010 -2.2426
18139THY    CA143931   9.134   0.882   5.763  0.2954  0.6383  0.2330
18139THY    CA243932   9.160   0.955   5.877  0.1837 -0.3096  1.0387
18139THY    CP143933   9.280   1.050   5.888 -0.5201  0.2906 -0.0734
18139THY    HP143934   9.338   1.048   5.795  2.0145  1.7753 -1.0210
18139THY    CP243935   9.370   0.990   5.984 -0.4147  0.1479 -0.4567
18139THY    HP243936   9.402   0.895   5.940  3.0720 -1.1455  1.1595
18139THY    HP343937   9.329   0.961   6.082 -0.9787  0.3382  0.9203
18139THY    HP443938   9.463   1.045   6.001  0.4657 -2.3909 -1.0380
18139THY    CP343939   9.237   1.191   5.930  0.1378  0.2607 -0.5334
18139THY    HP543940   9.210   1.245   5.839  1.8472  0.8171  1.3802
18139THY    HP643941   9.317   1.248   5.977 -0.1397 -0.0385  0.1151
18139THY    HP743942   9.148   1.192   5.994 -0.5197 -0.6233  0.6672
18139THY    CA343943   9.079   0.925   5.991  0.2682  0.4597 -0.0775
18139THY    HA343944   9.092   0.968   6.090  0.0417  0.7343 -0.6341
18139THY    CA443945   8.979   0.828   5.984  0.6291 -0.0718  0.6817
18139THY    HA443946   8.917   0.808   6.071 -1.4782 -1.9224 -1.4631
18139THY    CA543947   8.950   0.759   5.865 -0.5035 -0.0214 -0.0386
18139THY    CM143948   8.844   0.648   5.859  0.0395  0.5319  0.2919
18139THY    HM143949   8.886   0.548   5.873 -0.0253  0.4096  0.2466
18139THY    HM243950   8.784   0.660   5.767  2.8345 -1.3492  0.7926
18139THY    HM343951   8.779   0.664   5.945  1.1904  1.6105 -0.6583
18139THY    CA643952   9.035   0.783   5.752 -0.0033 -0.0563 -0.6825
18139THY    HA643953   9.017   0.730   5.658  0.3647 -0.0605 -0.8055
18140THY      O43954   7.910   3.310   6.954  0.6113  0.1641  0.1145
18140THY     HO43955   7.917   3.330   7.049 -0.2870  0.1449  0.5508
18140THY    CA143956   7.838   3.199   6.948 -0.2261  0.3936  0.4604
18140THY    CA243957   7.797   3.143   6.825  0.5209 -0.1344 -0.1678
18140THY    CP143958   7.837   3.226   6.699 -0.1246  0.0340  0.0160
18140THY    HP143959   7.874   3.327   6.721  0.3242  2.5694 -0.6256
18140THY    CP243960   7.732   3.234   6.589 -0.4678 -0.3887  0.0450
18140THY    HP243961   7.763   3.300   6.507 -1.9657 -0.8573  0.2142
18140THY    HP343962   7.640   3.267   6.640  1.0606  1.0827  2.3091
18140THY    HP443963   7.707   3.135   6.548 -2.8045 -1.9344  1.1653
18140THY    CP343964   7.974   3.179   6.640  0.5844  0.3923  0.3715
18140THY    HP543965   8.052   3.172   6.716  0.5154  0.5031  0.7610
18140THY    HP643966   8.019   3.248   6.568  2.0822  0.1408 -0.8061
18140THY    HP743967   7.965   3.079   6.596 -2.4792  0.8355  0.3558
18140THY    CA343968   7.715   3.026   6.824 -0.3268  0.0706  1.2064
18140THY    HA343969   7.680   2.988   6.728 -0.0702  0.7721 -0.8956
18140THY    CA443970   7.686   2.966   6.944  0.5785 -0.5246  0.1182
18140THY    HA443971   7.627   2.874   6.944 -0.8315  0.0053  0.9894
18140THY    CA543972   7.726   3.018   7.065 -0.4006 -0.0022 -0.6290
18140THY    CM143973   7.687   2.953   7.199  0.3261 -0.2968  0.5263
18140THY    HM143974   7.768   2.949   7.272 -2.0505  2.5014 -0.5807
18140THY    HM243975   7.667   2.848   7.176  0.4022 -1.0193  0.6670
18140THY    HM343976   7.598   3.006   7.235  0.4783 -0.8845  1.1917
18140THY    CA643977   7.802   3.136   7.067 -0.3055 -0.0089 -0.4191
18140THY    HA643978   7.834   3.185   7.158 -2.6229  0.9121 -0.5254
18141THY      O43979   2.105   0.630   7.234  0.5134 -0.4188 -0.5669
18141THY     HO43980   2.118   0.538   7.206  3.1879 -0.3241 -0.2988
18141THY    CA143981   2.073   0.620   7.372 -0.8536 -0.4892  0.0735
18141THY    CA243982   2.103   0.716   7.467 -0.5118 -0.2112  0.3666
18141THY    CP143983   2.165   0.855   7.434  0.0995  0.5984 -0.0500
18141THY    HP143984   2.216   0.847   7.338  0.0020  0.5445 -0.0273
18141THY    CP243985   2.279   0.889   7.527  0.5729 -0.1017  0.3498
18141THY    HP243986   2.350   0.806   7.528  0.3700 -1.6107  0.1302
18141THY    HP343987   2.242   0.916   7.627  0.1040 -0.1738 -0.0035
18141THY    HP443988   2.324   0.980   7.487 -1.6029 -0.9770  1.1199
18141THY    CP343989   2.062   0.968   7.438  0.0123  0.4103  0.0667
18141THY    HP543990   2.107   1.057   7.393 -2.2934  0.2478  1.2014
18141THY    HP643991   2.024   0.994   7.537  0.7612  0.7743 -0.1950
18141THY    HP743992   1.980   0.927   7.377  0.3849 -0.7541  0.9849
18141THY    CA343993   2.064   0.688   7.601  0.1061  1.1738 -0.2701
18141THY    HA343994   2.076   0.767   7.674 -1.3932  1.5300 -0.3422
18141THY    CA443995   2.031   0.558   7.640 -0.7786  0.9754 -0.0523
18141THY    HA443996   2.008   0.530   7.742  0.7091  1.1771 -0.6107
18141THY    CA543997   2.011   0.464   7.543 -0.3171  0.2230  0.5482
18141THY    CM143998   1.983   0.318   7.580  0.6660  0.4259 -0.6995
18141THY    HM143999   1.879   0.313   7.616  0.6070  0.5031  0.6076
18141THY    HM244000   2.049   0.288   7.662  0.0528  0.6728 -1.3966
18141THY    HM344001   1.984   0.241   7.502 -0.8249  1.3391 -1.6890
18141THY    CA644002   2.024   0.491   7.412 -0.0703  0.7003 -0.0593
18141THY    HA644003   2.011   0.410   7.341  2.2150 -0.1272  0.2124
18142THY      O44004   0.967   0.366   7.176 -0.3933  0.3328 -0.1738
18142THY     HO44005   0.895   0.309   7.143  0.4030 -0.6901 -0.6269
18142THY    CA144006   0.954   0.483   7.109 -0.8990  0.3517  0.6739
18142THY    CA244007   1.054   0.581   7.114 -0.2254 -0.6742 -0.7778
18142THY    CP144008   1.185   0.551   7.197  0.8021  0.8394 -0.2237
18142THY    HP144009   1.177   0.457   7.252 -0.5031 -1.0241 -1.2867
18142THY    CP244010   1.205   0.659   7.307 -0.0084  0.4770 -0.1853
18142THY    HP244011   1.213   0.760   7.264  0.2483 -0.9072 -0.7664
18142THY    HP344012   1.289   0.640   7.374  1.2309 -1.5498 -2.4582
18142THY    HP444013   1.112   0.661   7.366  0.4067  1.1981 -1.3210
18142THY    CP344014   1.299   0.558   7.101  0.2989 -0.3423  0.7247
18142THY    HP544015   1.300   0.468   7.038  1.7470  0.2725  0.2961
18142THY    HP644016   1.390   0.557   7.161 -1.6116  2.7681 -1.3514
18142THY    HP744017   1.297   0.645   7.034  0.1139  0.3905  1.2883
18142THY    CA344018   1.034   0.699   7.050 -0.4091  0.2417 -0.5616
18142THY    HA344019   1.100   0.785   7.057 -0.8693 -2.2150  0.0554
18142THY    CA444020   0.913   0.723   6.978  0.1716 -0.1478 -0.1765
18142THY    HA444021   0.900   0.816   6.923  0.9200 -2.2212 -1.2375
18142THY    CA544022   0.808   0.628   6.985 -0.1151  0.5123  0.1617
18142THY    CM144023   0.676   0.656   6.912 -0.2848 -0.2151  0.0926
18142THY    HM144024   0.701   0.664   6.806 -1.6104 -0.4042  3.0959
18142THY    HM244025   0.631   0.751   6.941  2.9621  1.5182  1.2737
18142THY    HM344026   0.609   0.569   6.920  0.2261 -1.3591 -0.4196
18142THY    CA644027   0.831   0.511   7.050  0.1185  0.4171  0.0649
18142THY    HA644028   0.756   0.433   7.056 -0.0962 -0.7583  0.1631
18143THY      O44029   8.224   9.258   2.574 -0.1100  0.1294 -0.1015
18143THY     HO44030   8.246   9.352   2.558  0.2494  2.8018  0.3239
18143THY    CA144031   8.215   9.202   2.451 -0.2621  0.0697 -0.4490
18143THY    CA244032   8.214   9.063   2.432  0.4883  0.3413 -0.0172
18143THY    CP144033   8.204   8.967   2.553 -0.1342 -0.1087 -0.2893
18143THY    HP144034   8.238   9.023   2.640 -0.5225  0.8155 -1.4404
18143THY    CP244035   8.285   8.843   2.554  0.4415  0.2059 -0.2383
18143THY    HP244036   8.381   8.882   2.519 -0.3398  1.0390  2.7310
18143THY    HP344037   8.239   8.770   2.486 -1.4469  1.5384 -0.3499
18143THY    HP444038   8.298   8.791   2.649  2.0035  1.3029  1.9839
18143THY    CP344039   8.058   8.943   2.589  0.5465 -0.2202 -0.0486
18143THY    HP544040   8.050   8.877   2.675  2.0392 -0.4013 -0.4876
18143THY    HP644041   8.006   8.903   2.501  1.9682 -1.0535 -0.1226
18143THY    HP744042   8.008   9.036   2.621 -1.3973  0.1584 -1.1615
18143THY    CA344043   8.212   9.014   2.296  0.3572 -0.1245 -0.1012
18143THY    HA344044   8.204   8.906   2.289  3.1657  1.1674 -0.4780
18143THY    CA444045   8.227   9.108   2.192  0.1101  0.0275  0.4793
18143THY    HA444046   8.221   9.077   2.088  1.5093 -0.1032  0.5966
18143THY    CA544047   8.226   9.250   2.214 -0.0318  0.6997  0.1740
18143THY    CM144048   8.208   9.347   2.095 -1.0044  0.4375  0.5796
18143THY    HM144049   8.237   9.303   1.999  2.9419  1.6649  0.1791
18143THY    HM244050   8.277   9.430   2.111  0.2205  0.7249 -0.4632
18143THY    HM344051   8.103   9.377   2.082 -2.2807 -1.2082 -3.7884
18143THY    CA644052   8.229   9.292   2.344 -1.0571  0.2108  0.5239
18143THY    HA644053   8.240   9.400   2.352 -0.3624  0.4928  0.4378
18144THY      O44054   6.334   9.278   5.532  0.8109 -0.4560 -0.1493
18144THY     HO44055   6.361   9.363   5.492  1.1523  1.3433  0.6178
18144THY    CA144056   6.200   9.270   5.535 -0.0014 -0.1257 -0.0006
18144THY    CA244057   6.135   9.144   5.520 -0.7943 -0.0864 -0.1673
18144THY    CP144058   6.222   9.022   5.483 -0.1219  0.4233  0.3020
18144THY    HP144059   6.326   9.049   5.463  0.4926  2.6910 -0.1921
18144THY    CP244060   6.156   8.953   5.366  0.1080 -0.4990  0.0958
18144THY    HP244061   6.057   8.919   5.399  0.8863  0.9373 -0.9145
18144THY    HP344062   6.215   8.864   5.339 -0.2259 -1.2728  0.1061
18144THY    HP444063   6.151   9.021   5.281 -0.0305  0.2010  0.9710
18144THY    CP344064   6.230   8.920   5.601 -0.5531  0.1777  0.3222
18144THY    HP544065   6.132   8.872   5.615  0.0482  1.9824 -0.4495
18144THY    HP644066   6.258   8.980   5.688  1.2118 -1.3390  1.8461
18144THY    HP744067   6.300   8.836   5.590  1.1790  0.9332  1.6035
18144THY    CA344068   6.000   9.141   5.542  0.1843  0.4508  0.6920
18144THY    HA344069   5.948   9.046   5.533  1.6875 -1.6294  0.0030
18144THY    CA444070   5.933   9.254   5.591 -0.7669 -1.1245  0.4793
18144THY    HA444071   5.831   9.246   5.627 -0.1555  0.4386 -1.0165
18144THY    CA544072   6.003   9.366   5.618  0.0299 -0.4001 -0.3196
18144THY    CM144073   5.946   9.484   5.693  0.1416  0.5097  0.0960
18144THY    HM144074   5.876   9.454   5.772 -2.2146 -1.4244  0.1400
18144THY    HM244075   5.864   9.526   5.632  0.5851 -1.4176 -1.7002
18144THY    HM344076   6.021   9.553   5.734 -0.0979  0.1938  0.5487
18144THY    CA644077   6.135   9.378   5.590 -0.0368 -0.5888 -0.2330
18144THY    HA644078   6.194   9.464   5.622  1.9096  1.3435 -2.1624
18145THY      O44079   3.019   1.911   1.739 -0.1805  0.2927  0.1967
18145THY     HO44080   2.943   1.967   1.716 -0.1822  2.2335  1.0598
18145THY    CA144081   2.965   1.808   1.803  0.8308 -0.1418 -0.5868
18145THY    CA244082   3.049   1.717   1.872  0.4173  0.0101 -1.0781
18145THY    CP144083   3.206   1.737   1.884  0.5155 -0.9633  0.0543
18145THY    HP144084   3.233   1.836   1.845  2.0871  0.1252  0.1027
18145THY    CP244085   3.271   1.620   1.798  0.0295  0.2251 -0.3727
18145THY    HP244086   3.224   1.620   1.699 -1.6775  0.9864  0.1361
18145THY    HP344087   3.243   1.527   1.849  0.4888 -0.4987 -0.9132
18145THY    HP444088   3.380   1.626   1.787 -0.0375 -0.0557  0.3809
18145THY    CP344089   3.254   1.730   2.029  0.8395 -0.9599  0.3403
18145THY    HP544090   3.363   1.739   2.033  1.0567  3.2979 -1.7213
18145THY    HP644091   3.232   1.635   2.080 -2.9284 -0.8413  1.1037
18145THY    HP744092   3.215   1.809   2.095  0.3111 -0.2983 -0.4555
18145THY    CA344093   2.991   1.605   1.939 -0.7668  0.2218 -0.2881
18145THY    HA344094   3.051   1.535   1.997  1.0061 -0.9404  0.2036
18145THY    CA444095   2.858   1.580   1.917  0.0517 -0.1782  0.0614
18145THY    HA444096   2.814   1.508   1.986  2.0318  1.5484  0.3944
18145THY    CA544097   2.783   1.658   1.834  1.2464 -0.0888 -0.1082
18145THY    CM144098   2.630   1.646   1.834 -0.5092 -0.1135  0.6540
18145THY    HM144099   2.591   1.617   1.932 -1.9207 -0.9278 -0.3458
18145THY    HM244100   2.604   1.575   1.754 -0.2994 -0.1808  0.6538
18145THY    HM344101   2.586   1.745   1.815 -1.1665 -0.7643  0.2540
18145THY    CA644102   2.832   1.773   1.788 -0.1986 -0.5233 -0.5926
18145THY    HA644103   2.763   1.833   1.730  2.1386  0.4409  3.3620
18146THY      O44104   8.245   6.849   5.389 -0.0618 -0.4483 -0.1054
18146THY     HO44105   8.316   6.903   5.428  2.1596  0.6549 -3.4794
18146THY    CA144106   8.246   6.851   5.256 -0.5923 -0.2118  0.0769
18146THY    CA244107   8.169   6.762   5.181  0.4225  0.2238  0.7001
18146THY    CP144108   8.071   6.664   5.236  0.1916  0.1761  0.3970
18146THY    HP144109   8.073   6.667   5.346 -0.5310  0.2219 -0.2496
18146THY    CP244110   8.106   6.523   5.198 -0.4330 -0.4906 -0.4991
18146THY    HP244111   8.100   6.492   5.093 -0.4825 -0.6729  0.1182
18146THY    HP344112   8.037   6.451   5.244 -0.1894  0.0364 -0.3973
18146THY    HP444113   8.210   6.507   5.229 -0.3131  0.2812  1.4748
18146THY    CP344114   7.927   6.699   5.196  0.3247 -0.5120  0.3726
18146THY    HP544115   7.926   6.735   5.092  3.0964 -0.6738  0.1845
18146THY    HP644116   7.889   6.775   5.265  0.4901 -0.0020 -0.0048
18146THY    HP744117   7.858   6.613   5.198  0.7557 -1.1116  0.0012
18146THY    CA344118   8.175   6.773   5.042  0.3878 -0.3008 -0.3354
18146THY    HA344119   8.109   6.716   4.977 -2.0817  1.4013  0.4427
18146THY    CA444120   8.270   6.863   4.982 -0.1455  0.2156 -0.1989
18146THY    HA444121   8.255   6.889   4.878 -0.8195  0.2201 -0.5638
18146THY    CA544122   8.343   6.956   5.059 -0.4728  0.3809  0.0704
18146THY    CM144123   8.416   7.074   5.001 -0.2819  0.1914  0.5725
18146THY    HM144124   8.441   7.147   5.080  0.5341 -0.4096  0.9652
18146THY    HM244125   8.353   7.133   4.934  2.3722 -1.4174  1.7738
18146THY    HM344126   8.508   7.049   4.947  0.4474  0.7167  2.0070
18146THY    CA644127   8.326   6.946   5.196 -0.6188 -0.2808  0.6059
18146THY    HA644128   8.392   7.006   5.258 -0.4937  1.1348 -0.9011
18147THY      O44129   4.264   3.873   6.899 -0.2724 -0.0385 -0.4289
18147THY     HO44130   4.285   3.827   6.982  0.2939  0.2666  0.3716
18147THY    CA144131   4.338   3.795   6.813  0.8430 -0.0853 -0.0588
18147THY    CA244132   4.382   3.842   6.686  0.2892 -0.7146  0.2101
18147THY    CP144133   4.355   3.989   6.644  0.6429  0.8305  0.3197
18147THY    HP144134   4.323   4.049   6.731 -0.4946  1.4764 -1.1613
18147THY    CP244135   4.225   4.005   6.559  0.6747  1.2124 -0.0534
18147THY    HP244136   4.145   3.958   6.617 -0.0818  0.7502  0.6367
18147THY    HP344137   4.239   3.958   6.461 -0.9275  0.9693 -0.0825
18147THY    HP444138   4.181   4.104   6.544 -0.1995 -2.3134 -0.8323
18147THY    CP344139   4.477   4.063   6.575 -0.1724 -0.3582  0.0186
18147THY    HP544140   4.560   4.088   6.641 -0.2575 -0.5251  0.7515
18147THY    HP644141   4.433   4.159   6.545 -2.1354  0.8101 -0.4610
18147THY    HP744142   4.519   4.002   6.493  0.5461  1.0036 -1.3810
18147THY    CA344143   4.458   3.762   6.599  0.4070 -0.3345  0.5194
18147THY    HA344144   4.487   3.798   6.501  1.2467 -0.4199 -0.3452
18147THY    CA444145   4.486   3.633   6.649  0.5046 -0.1733  0.0124
18147THY    HA444146   4.533   3.562   6.582 -2.9218 -0.3842 -2.2693
18147THY    CA544147   4.443   3.589   6.774 -0.4243  0.2914  0.2746
18147THY    CM144148   4.476   3.448   6.810  1.0175  0.5454 -0.1297
18147THY    HM144149   4.455   3.445   6.917 -0.1864  0.3092 -1.5591
18147THY    HM244150   4.583   3.427   6.798  0.9115 -2.4821  0.5287
18147THY    HM344151   4.409   3.381   6.755  0.4626  1.0580 -0.0024
18147THY    CA644152   4.371   3.667   6.855 -0.5258  0.2389  0.4011
18147THY    HA644153   4.338   3.633   6.953  0.6266  0.9277  1.1777
18148THY      O44154   6.629   3.085   6.784 -0.6481 -0.5268  0.4913
18148THY     HO44155   6.557   3.019   6.790  0.2307  0.3381 -0.4221
18148THY    CA144156   6.729   3.048   6.864 -0.3799 -0.7197  0.4554
18148THY    CA244157   6.835   3.133   6.893 -0.4893 -0.1482  0.9891
18148THY    CP144158   6.836   3.275   6.837 -0.0804  0.5998  0.0764
18148THY    HP144159   6.735   3.295   6.798  0.6141 -1.2647  0.1208
18148THY    CP244160   6.936   3.283   6.727 -0.1954  0.2800 -0.5268
18148THY    HP244161   7.036   3.288   6.771 -0.9426  2.0861 -0.2945
18148THY    HP344162   6.920   3.377   6.673  0.6794 -1.7036 -1.4739
18148THY    HP444163   6.924   3.187   6.675  0.3912  2.2518 -1.7255
18148THY    CP344164   6.859   3.375   6.948  0.2871  0.2248  0.0669
18148THY    HP544165   6.787   3.365   7.031 -0.5672 -0.7527 -3.0560
18148THY    HP644166   6.859   3.478   6.912 -1.5318  0.8365  0.3143
18148THY    HP744167   6.955   3.364   7.001  0.7470 -0.7308 -0.5902
18148THY    CA344168   6.940   3.091   6.970 -0.3688 -0.0010  0.0003
18148THY    HA344169   7.009   3.167   7.005 -0.9332 -2.5637  1.8201
18148THY    CA444170   6.945   2.961   7.020 -0.1053  0.0717 -0.1160
18148THY    HA444171   7.029   2.945   7.087  2.0948 -1.6807  2.9675
18148THY    CA544172   6.848   2.873   6.982  0.2981  0.0069 -0.0214
18148THY    CM144173   6.850   2.730   7.035  1.0100  0.3444 -0.9845
18148THY    HM144174   6.951   2.706   7.069  1.5383  0.3078  1.0144
18148THY    HM244175   6.815   2.658   6.960 -0.3667  0.6200 -0.6407
18148THY    HM344176   6.786   2.717   7.123  2.2495  1.1854 -1.5312
18148THY    CA644177   6.741   2.917   6.904 -0.0661 -0.0286 -0.3271
18148THY    HA644178   6.664   2.849   6.869 -0.9732  0.7553  0.2879
18149THY      O44179   8.834   3.085   7.471  0.2960 -0.1915 -0.0216
18149THY     HO44180   8.861   3.028   7.397 -1.0064 -0.7641  0.0578
18149THY    CA144181   8.763   3.009   7.561  0.5988  0.7403  0.5099
18149THY    CA244182   8.679   3.060   7.659  0.0465  0.7824 -0.4410
18149THY    CP144183   8.665   3.210   7.673 -0.0217 -0.0296  0.4966
18149THY    HP144184   8.731   3.256   7.598 -0.3882  0.1000  1.2438
18149THY    CP244185   8.731   3.259   7.811  0.6941  0.5799 -0.7394
18149THY    HP244186   8.818   3.194   7.827  0.7849  1.6407 -0.3652
18149THY    HP344187   8.669   3.251   7.900  1.1622  1.2097  1.6815
18149THY    HP444188   8.752   3.366   7.798 -2.0753 -1.1422 -0.3168
18149THY    CP344189   8.522   3.271   7.641  0.0840  0.0700  0.2893
18149THY    HP544190   8.494   3.252   7.537  0.4751  0.2147 -1.2453
18149THY    HP644191   8.538   3.379   7.648 -1.1123 -0.4751  0.5115
18149THY    HP744192   8.451   3.247   7.721  2.4804  1.6554 -2.2892
18149THY    CA344193   8.610   2.977   7.752 -0.3785  0.0498 -0.4651
18149THY    HA344194   8.543   3.024   7.824  1.4482 -0.6902  3.6771
18149THY    CA444195   8.624   2.833   7.732  0.5147  0.1830 -0.3229
18149THY    HA444196   8.577   2.763   7.801 -2.6866 -1.4432  0.0300
18149THY    CA544197   8.699   2.783   7.628  0.3131  0.8487  0.1392
18149THY    CM144198   8.721   2.635   7.628 -0.0116  0.2491 -0.3034
18149THY    HM144199   8.625   2.583   7.631 -0.6987  0.7828  0.9259
18149THY    HM244200   8.756   2.600   7.726 -0.0779  0.2332 -0.4138
18149THY    HM344201   8.779   2.598   7.543 -0.7220  0.2366 -1.4185
18149THY    CA644202   8.768   2.871   7.548  0.3137 -0.0391 -0.3280
18149THY    HA644203   8.837   2.835   7.472 -0.0028 -0.3786 -0.2285
18150THY      O44204   1.613   3.902   5.025  0.5079  0.2111 -0.1406
18150THY     HO44205   1.538   3.945   4.978  0.6971 -2.4541 -2.4196
18150THY    CA144206   1.627   3.936   5.153  0.2083  0.1882  0.4650
18150THY    CA244207   1.707   3.860   5.241  0.0279  0.1796 -0.8612
18150THY    CP144208   1.776   3.741   5.190 -0.2147  0.3760  0.4358
18150THY    HP144209   1.741   3.710   5.091  2.7592 -0.2146 -1.4452
18150THY    CP244210   1.736   3.623   5.281  0.4285  0.1575  0.0510
18150THY    HP244211   1.797   3.613   5.371 -0.7261  1.1982  1.9146
18150THY    HP344212   1.750   3.526   5.231  0.4744 -0.3466  0.3132
18150THY    HP444213   1.629   3.632   5.305  0.7252  1.2500  0.9124
18150THY    CP344214   1.929   3.756   5.171  0.2173 -1.0809 -0.2019
18150THY    HP544215   1.953   3.838   5.103  2.8768  0.6968  0.6231
18150THY    HP644216   1.969   3.664   5.126  0.2723 -0.9636 -0.2357
18150THY    HP744217   1.973   3.764   5.271 -3.8684  0.8388  1.6635
18150THY    CA344218   1.722   3.906   5.374 -0.6036  0.1612 -1.2501
18150THY    HA344219   1.782   3.854   5.449  0.9341 -0.2865 -0.1787
18150THY    CA444220   1.654   4.020   5.418  0.6441  0.3999 -0.0521
18150THY    HA444221   1.667   4.058   5.519 -0.2296  0.0627  1.2167
18150THY    CA544222   1.585   4.098   5.320 -0.4394  0.3070 -0.4645
18150THY    CM144223   1.523   4.236   5.347 -0.1091  0.0359 -0.6380
18150THY    HM144224   1.535   4.292   5.254  4.0598  0.8367  0.1032
18150THY    HM244225   1.576   4.296   5.422  1.3546 -0.1595 -1.6401
18150THY    HM344226   1.419   4.233   5.382 -1.0377 -2.3812  0.4587
18150THY    CA644227   1.565   4.053   5.188  0.7047  0.3625  0.1584
18150THY    HA644228   1.514   4.114   5.114  2.5838  1.5202  3.3551
18151THY      O44229   7.184   3.944   5.490 -0.1695 -0.1244  0.0640
18151THY     HO44230   7.131   3.946   5.571  1.7441  1.1863 -0.4480
18151THY    CA144231   7.287   4.025   5.511 -0.3605  0.2090 -0.4836
18151THY    CA244232   7.312   4.151   5.447  0.0158 -0.3061  0.2281
18151THY    CP144233   7.203   4.203   5.344  0.4074  0.2523  0.1103
18151THY    HP144234   7.131   4.121   5.331  2.3634 -2.3444 -1.3657
18151THY    CP244235   7.260   4.213   5.199 -0.5147 -0.1672  0.2113
18151THY    HP244236   7.336   4.291   5.202  1.4446 -0.6089 -1.6001
18151THY    HP344237   7.176   4.232   5.131 -0.8781  0.3404  0.4615
18151THY    HP444238   7.313   4.122   5.170  1.0821  2.1553  0.3188
18151THY    CP344239   7.136   4.333   5.377 -0.4775  0.4584  0.0617
18151THY    HP544240   7.216   4.401   5.408 -0.5230 -1.2370  0.9465
18151THY    HP644241   7.070   4.314   5.462  0.7563  1.2548 -0.8817
18151THY    HP744242   7.074   4.376   5.297 -1.2964  2.1720  2.2955
18151THY    CA344243   7.429   4.228   5.478 -0.2150  0.2497  0.3926
18151THY    HA344244   7.432   4.330   5.439 -1.9161 -3.9828 -0.9403
18151THY    CA444245   7.534   4.165   5.549 -0.4250 -0.4190 -0.7843
18151THY    HA444246   7.629   4.215   5.567  1.1289 -2.6963 -2.6896
18151THY    CA544247   7.518   4.036   5.605  0.4852 -0.5576 -0.2354
18151THY    CM144248   7.631   3.968   5.686  0.1688  0.1480  0.0492
18151THY    HM144249   7.683   4.032   5.758 -0.5489 -0.1474  0.9905
18151THY    HM244250   7.707   3.918   5.624  1.6524  1.2851  0.8080
18151THY    HM344251   7.583   3.886   5.739  1.0121 -0.4149 -0.8263
18151THY    CA644252   7.393   3.968   5.580  0.8747 -0.6541 -0.6912
18151THY    HA644253   7.380   3.870   5.625  0.8204  0.5694 -0.1344
18152THY      O44254   2.711   2.493   5.119  0.6921  0.1674 -0.2190
18152THY     HO44255   2.743   2.407   5.152  2.6889 -0.6346  0.1516
18152THY    CA144256   2.582   2.493   5.145  0.0419 -0.1719  0.4015
18152THY    CA244257   2.503   2.610   5.132  0.6138  0.2111  0.2036
18152THY    CP144258   2.559   2.745   5.077 -0.2871 -0.2389  0.2633
18152THY    HP144259   2.669   2.746   5.078 -0.1358  1.6598 -2.9698
18152THY    CP244260   2.525   2.860   5.174 -0.6755  0.0616  0.4110
18152THY    HP244261   2.551   2.958   5.131 -0.3322  1.6922  1.0848
18152THY    HP344262   2.586   2.836   5.263  1.6173 -1.3635  0.6385
18152THY    HP444263   2.420   2.865   5.204 -0.6378  0.0100  2.2476
18152THY    CP344264   2.506   2.763   4.938 -0.0822  0.4831  0.9021
18152THY    HP544265   2.526   2.672   4.878  1.1026  1.4420  0.5112
18152THY    HP644266   2.559   2.837   4.878  2.1641 -0.1844 -1.1319
18152THY    HP744267   2.399   2.783   4.923  0.2115 -1.7496  1.1216
18152THY    CA344268   2.362   2.600   5.155  0.5035  0.7085  0.0960
18152THY    HA344269   2.291   2.683   5.159 -2.4232  3.3710 -2.2356
18152THY    CA444270   2.311   2.477   5.201  0.0815 -0.3683 -0.8725
18152THY    HA444271   2.207   2.473   5.233 -0.4705 -1.2083  3.2190
18152THY    CA544272   2.392   2.364   5.214 -0.5564  0.5902  0.0498
18152THY    CM144273   2.330   2.236   5.260 -0.0978 -0.5400 -0.4031
18152THY    HM144274   2.236   2.216   5.208  0.3949 -1.7287  0.2474
18152THY    HM244275   2.318   2.233   5.369 -0.4715 -0.5050  1.4555
18152THY    HM344276   2.394   2.154   5.225  2.5766  1.0566  0.8730
18152THY    CA644277   2.528   2.370   5.185  0.2000  0.1359  0.2632
18152THY    HA644278   2.588   2.282   5.206  0.4339 -0.0704  0.3721
18153THY      O44279   4.795   2.957   3.083  0.1957 -0.4531  0.5838
18153THY     HO44280   4.706   2.941   3.120  0.0972 -1.3974 -1.3094
18153THY    CA144281   4.829   2.836   3.017  0.4666 -0.5159  0.5830
18153THY    CA244282   4.956   2.812   2.956 -0.6426  0.3516 -0.0227
18153THY    CP144283   5.049   2.929   2.935 -0.3476  0.3091 -0.5629
18153THY    HP144284   5.029   3.010   3.007  1.4709  2.4148 -1.8605
18153THY    CP244285   5.027   2.984   2.794  0.1213  0.0900  0.0572
18153THY    HP244286   5.081   3.078   2.779  2.0341  2.4432 -0.5594
18153THY    HP344287   4.919   2.992   2.780  0.0690  0.9070  0.7906
18153THY    HP444288   5.074   2.912   2.725 -0.0045  0.6004 -0.5179
18153THY    CP344289   5.193   2.897   2.961 -0.5765  0.3628  0.1275
18153THY    HP544290   5.199   2.827   3.046  1.2256 -1.3620 -1.9729
18153THY    HP644291   5.245   2.992   2.979  1.6254 -0.6649 -0.8130
18153THY    HP744292   5.234   2.853   2.870 -2.0887  0.0027 -0.5881
18153THY    CA344293   4.989   2.688   2.900  0.1527 -0.0656  0.1505
18153THY    HA344294   5.088   2.686   2.855  0.1442 -0.0738 -0.5703
18153THY    CA444295   4.904   2.584   2.916  0.8764  0.2427 -0.3745
18153THY    HA444296   4.926   2.491   2.864  0.0006 -1.7943  0.4913
18153THY    CA544297   4.771   2.615   2.959  0.4869  0.3290  0.3613
18153THY    CM144298   4.668   2.509   2.949 -0.6293  0.6180  0.4116
18153THY    HM144299   4.708   2.407   2.956  1.1010  1.8847  1.1511
18153THY    HM244300   4.603   2.509   2.860  1.0327 -0.6500  0.4815
18153THY    HM344301   4.590   2.512   3.026 -1.8733 -0.6278  2.8729
18153THY    CA644302   4.733   2.734   3.014  0.2111  0.9889 -0.4424
18153THY    HA644303   4.639   2.744   3.066  0.4775  1.2469  0.8262
18154THY      O44304   1.891   4.915   6.361  0.5340 -0.0297 -0.0027
18154THY     HO44305   1.849   4.828   6.361  0.7751  1.1552 -0.1323
18154THY    CA144306   1.834   4.985   6.468 -0.2597  0.0110 -0.7357
18154THY    CA244307   1.799   5.123   6.465  0.7884 -0.6278  0.0999
18154THY    CP144308   1.839   5.206   6.345  0.7594 -0.1956  0.5011
18154THY    HP144309   1.940   5.175   6.312  1.9081  2.5354  1.0364
18154THY    CP244310   1.854   5.357   6.379 -0.7445 -0.6061  0.1459
18154THY    HP244311   1.912   5.349   6.471 -1.4620 -0.2283 -0.8454
18154THY    HP344312   1.755   5.401   6.397 -0.9608 -1.2678 -0.0592
18154THY    HP444313   1.914   5.415   6.307  0.2104 -0.7521 -0.9855
18154THY    CP344314   1.732   5.171   6.243  0.0655  0.5750 -0.8843
18154THY    HP544315   1.708   5.065   6.236 -1.5887  3.0415 -0.7630
18154THY    HP644316   1.761   5.210   6.145 -2.4324  0.1177  0.0545
18154THY    HP744317   1.633   5.207   6.276 -1.5435 -2.5627 -2.1284
18154THY    CA344318   1.727   5.176   6.577 -0.9424 -0.2964  0.1677
18154THY    HA344319   1.693   5.279   6.573 -1.2292  0.2043  0.0942
18154THY    CA444320   1.698   5.097   6.688 -0.3051  0.4231 -0.1453
18154THY    HA444321   1.634   5.130   6.769 -1.3995  0.5776 -2.4438
18154THY    CA544322   1.731   4.958   6.676  0.0205  0.1520  0.0568
18154THY    CM144323   1.700   4.868   6.793  0.6599 -0.4972 -0.7600
18154THY    HM144324   1.758   4.774   6.794  1.3274  0.1530 -0.3571
18154THY    HM244325   1.593   4.846   6.801  0.1407  2.2879  2.1362
18154THY    HM344326   1.730   4.921   6.884 -2.9706  0.2724  0.2617
18154THY    CA644327   1.799   4.906   6.569  0.4074 -0.0410 -0.2553
18154THY    HA644328   1.826   4.801   6.567  1.3613  1.8886 -0.1009
18155THY      O44329   4.548   2.258   2.613  0.0550  0.0547  0.0471
18155THY     HO44330   4.482   2.233   2.680  0.3101  0.4645  0.4553
18155THY    CA144331   4.682   2.230   2.650  0.2958  0.2226 -0.4080
18155THY    CA244332   4.790   2.236   2.565 -0.0081 -0.2543  0.4526
18155THY    CP144333   4.766   2.280   2.424 -0.0343  0.4544 -0.9048
18155THY    HP144334   4.671   2.336   2.425  0.4801 -1.6473  0.0768
18155THY    CP244335   4.738   2.173   2.326 -0.3043  0.1492  0.7062
18155THY    HP244336   4.713   2.214   2.227 -0.7979  0.8543  2.1651
18155THY    HP344337   4.647   2.123   2.362  0.1872  0.5317  0.0775
18155THY    HP444338   4.830   2.114   2.322  1.0174  1.5211  2.5862
18155THY    CP344339   4.866   2.388   2.368  0.0574 -0.1502 -0.5711
18155THY    HP544340   4.964   2.347   2.344  0.3726 -0.7040  0.4733
18155THY    HP644341   4.889   2.466   2.441 -0.6493 -1.3329  0.8085
18155THY    HP744342   4.838   2.427   2.269 -0.1578  0.1332  0.0103
18155THY    CA344343   4.918   2.209   2.610 -0.2845 -0.5551 -0.5008
18155THY    HA344344   5.002   2.211   2.541  0.7775  0.6268  2.6619
18155THY    CA444345   4.946   2.184   2.744  0.5003 -0.1801 -0.6044
18155THY    HA444346   5.045   2.171   2.787  0.5547 -0.4422 -1.1025
18155THY    CA544347   4.839   2.188   2.837  0.5638 -0.1603 -0.0467
18155THY    CM144348   4.859   2.163   2.986 -0.0190  0.4475  0.5130
18155THY    HM144349   4.895   2.255   3.032 -1.0763 -0.7896  1.5818
18155THY    HM244350   4.924   2.076   3.005  2.8631  0.0279  2.4319
18155THY    HM344351   4.767   2.133   3.037  0.2766  0.6426 -0.0929
18155THY    CA644352   4.711   2.222   2.789  0.6192 -0.5856 -0.0208
18155THY    HA644353   4.632   2.224   2.864  0.5606 -0.6468  1.6909
18156THY      O44354   1.374   6.517   5.757  0.3534  0.6982 -0.4774
18156THY     HO44355   1.359   6.424   5.732 -0.7696 -1.4717  0.2103
18156THY    CA144356   1.442   6.514   5.873  0.4784 -0.6811 -0.1012
18156THY    CA244357   1.363   6.492   5.995  0.0663  0.0555 -0.4854
18156THY    CP144358   1.210   6.461   5.999  0.0373 -0.6786  0.2310
18156THY    HP144359   1.173   6.438   5.898 -0.9840  0.0902 -1.7899
18156THY    CP244360   1.135   6.565   6.062  0.0196  0.3530  0.1105
18156THY    HP244361   1.028   6.541   6.058  0.0519  2.8632 -0.7303
18156THY    HP344362   1.148   6.658   6.005  1.1988 -1.4169 -1.0836
18156THY    HP444363   1.173   6.574   6.164 -0.8790  0.6872  0.1981
18156THY    CP344364   1.194   6.327   6.076  0.3072  0.1550 -0.0867
18156THY    HP544365   1.222   6.329   6.182 -3.6459  1.3255  1.1391
18156THY    HP644366   1.251   6.252   6.019  0.7223  2.6419 -1.7917
18156THY    HP744367   1.092   6.288   6.070  0.6978  1.4600 -1.4138
18156THY    CA344368   1.437   6.479   6.116  0.0100  0.0907 -0.5561
18156THY    HA344369   1.386   6.466   6.212 -0.5217  0.2678  2.2573
18156THY    CA444370   1.582   6.490   6.112 -0.2634 -0.1616 -0.0553
18156THY    HA444371   1.643   6.474   6.201  2.8239 -2.4954 -2.5227
18156THY    CA544372   1.652   6.516   5.996 -0.1604  0.1594  0.3488
18156THY    CM144373   1.798   6.521   5.990 -0.3931 -0.3677 -0.4792
18156THY    HM144374   1.831   6.597   5.918 -2.1530 -0.7090  0.0046
18156THY    HM244375   1.848   6.425   5.974  1.1963  0.0158  0.2466
18156THY    HM344376   1.836   6.555   6.087 -1.1577 -0.0259 -0.5830
18156THY    CA644377   1.581   6.524   5.872  0.1861 -0.1348 -1.0012
18156THY    HA644378   1.635   6.545   5.781  2.4265  1.5344  1.0525
18157THY      O44379   8.988   6.402   3.059  0.4238 -0.0050 -0.1669
18157THY     HO44380   8.966   6.353   3.141 -1.9929 -0.8426 -0.6477
18157THY    CA144381   8.962   6.535   3.085 -0.0942 -0.7300  0.3431
18157THY    CA244382   8.989   6.645   2.996  0.3264 -0.2258 -0.3373
18157THY    CP144383   9.051   6.620   2.863  0.2219  0.3902 -0.0074
18157THY    HP144384   9.089   6.518   2.854  0.3992  0.6007  0.0402
18157THY    CP244385   9.158   6.723   2.843  0.0143 -0.4612  0.5150
18157THY    HP244386   9.121   6.816   2.798  2.1877 -0.7064  1.3171
18157THY    HP344387   9.236   6.689   2.775 -0.0816 -1.3944  2.0345
18157THY    HP444388   9.213   6.751   2.934 -0.1808  0.1886 -1.0759
18157THY    CP344389   8.937   6.618   2.766  0.0306  0.2243 -0.1311
18157THY    HP544390   8.876   6.709   2.773 -0.8284  0.9110 -0.7423
18157THY    HP644391   8.865   6.535   2.779  1.6780  0.1171 -1.6359
18157THY    HP744392   8.973   6.608   2.663 -0.8990  0.0503 -2.7512
18157THY    CA344393   8.935   6.766   3.030  0.2419  0.4372  0.1842
18157THY    HA344394   8.938   6.849   2.960 -0.8316  0.8485  0.5806
18157THY    CA444395   8.877   6.793   3.156  0.3411 -0.0296 -0.0445
18157THY    HA444396   8.843   6.895   3.175  0.7288 -1.7735  0.4430
18157THY    CA544397   8.868   6.690   3.253  0.2907  0.3229  0.3372
18157THY    CM144398   8.791   6.708   3.382 -0.7377  0.3190  0.2621
18157THY    HM144399   8.683   6.710   3.366 -0.6461 -0.4131 -0.3872
18157THY    HM244400   8.813   6.808   3.423 -0.2184 -0.5847  0.5374
18157THY    HM344401   8.812   6.617   3.439  2.2339 -0.1619  0.5446
18157THY    CA644402   8.910   6.562   3.211  0.6790  0.2604  0.5136
18157THY    HA644403   8.891   6.471   3.267  0.0280 -2.0653 -0.8844
18158THY      O44404   6.351   0.783   7.051 -0.0467  0.1403  0.7434
18158THY     HO44405   6.321   0.720   6.983 -1.9403  2.3220 -0.8823
18158THY    CA144406   6.470   0.834   7.020 -0.2260 -1.0496  0.2167
18158THY    CA244407   6.521   0.947   7.079 -0.1978  0.3278 -0.0294
18158THY    CP144408   6.436   1.036   7.170  0.2217 -0.2483 -0.0681
18158THY    HP144409   6.335   0.996   7.180  0.7225  1.7972 -0.9542
18158THY    CP244410   6.422   1.190   7.135 -0.4686  0.0021  0.5029
18158THY    HP244411   6.379   1.196   7.035  0.2035 -0.3771 -0.5701
18158THY    HP344412   6.516   1.245   7.147 -0.8166  0.5361  0.9965
18158THY    HP444413   6.353   1.237   7.206 -0.4070  0.5668 -0.2379
18158THY    CP344414   6.471   1.018   7.317 -0.2488 -0.3175  0.3379
18158THY    HP544415   6.578   1.020   7.339 -0.4607  1.0253 -1.0061
18158THY    HP644416   6.446   0.915   7.347  2.6457  0.4174 -0.2250
18158THY    HP744417   6.407   1.085   7.376 -1.2705 -1.2520  0.2225
18158THY    CA344418   6.643   0.999   7.034  0.6631  0.2507  0.7711
18158THY    HA344419   6.690   1.091   7.068  0.7983  1.2738  0.3428
18158THY    CA444420   6.706   0.937   6.929  0.0797  0.1518  0.1534
18158THY    HA444421   6.795   0.973   6.879 -1.3588 -2.2302  0.7032
18158THY    CA544422   6.660   0.807   6.877 -0.3361 -0.7509  0.2231
18158THY    CM144423   6.737   0.715   6.780  0.8303  0.4709 -0.7144
18158THY    HM144424   6.799   0.636   6.824  1.1930  1.6574  0.2101
18158THY    HM244425   6.789   0.775   6.704  1.3458 -0.7393 -2.6033
18158THY    HM344426   6.668   0.657   6.718  1.8459 -0.8262 -0.5901
18158THY    CA644427   6.536   0.767   6.918 -0.4018  0.8671  0.1975
18158THY    HA644428   6.494   0.676   6.879 -1.6032  0.3838  0.9381
18159THY      O44429   8.369   7.867   4.323  0.1244 -0.6366  0.9331
18159THY     HO44430   8.455   7.841   4.285 -0.1068 -0.4625 -0.1254
18159THY    CA144431   8.273   7.844   4.238  0.1596 -0.3364 -0.1822
18159THY    CA244432   8.140   7.875   4.266  0.5834 -0.3267 -0.9203
18159THY    CP144433   8.093   7.923   4.404 -0.8990 -0.3973 -0.5537
18159THY    HP144434   8.165   7.914   4.486 -0.9632 -0.1562  0.9164
18159THY    CP244435   7.971   7.831   4.438 -0.0060  0.2454  0.0547
18159THY    HP244436   7.950   7.850   4.543  0.0863 -0.1830  2.9699
18159THY    HP344437   7.998   7.726   4.420  0.3467 -0.6267  0.2802
18159THY    HP444438   7.881   7.863   4.385  1.9886 -2.9864  0.8535
18159THY    CP344439   8.063   8.073   4.407  0.4026  0.0630  0.3933
18159THY    HP544440   8.145   8.127   4.359  0.3007 -1.2907 -0.6024
18159THY    HP644441   8.034   8.110   4.506  0.8653  0.4317 -0.2206
18159THY    HP744442   7.976   8.084   4.341  0.1905  0.4735  1.3393
18159THY    CA344443   8.043   7.875   4.160 -0.1525 -0.1533  1.2597
18159THY    HA344444   7.938   7.891   4.180 -0.5888 -0.4850 -0.8869
18159THY    CA444445   8.086   7.849   4.030  0.0716  0.0456 -0.4359
18159THY    HA444446   8.018   7.858   3.945 -1.0122  0.9694  0.4050
18159THY    CA544447   8.215   7.811   4.008 -0.5882 -0.0424  0.4135
18159THY    CM144448   8.246   7.765   3.873  0.9184 -0.5659 -0.1190
18159THY    HM144449   8.235   7.657   3.865  2.8257 -1.2853 -0.2975
18159THY    HM244450   8.351   7.786   3.850  1.0118 -1.9945 -1.9490
18159THY    HM344451   8.191   7.809   3.789  2.6198 -1.6980 -0.0651
18159THY    CA644452   8.309   7.807   4.110  0.5970  0.6099  0.6062
18159THY    HA644453   8.407   7.764   4.093  1.6035  0.2273  2.8717
18160THY      O44454   5.715   6.428   4.997  0.6765  0.4883  0.0468
18160THY     HO44455   5.720   6.524   5.013  0.0480 -0.8853  0.3327
18160THY    CA144456   5.774   6.377   5.106  0.5307 -0.1825  0.0286
18160THY    CA244457   5.763   6.244   5.145  0.6175 -0.2363  0.7835
18160THY    CP144458   5.655   6.159   5.065 -0.6415 -0.2337 -0.1343
18160THY    HP144459   5.653   6.197   4.962  0.3203  0.0857  0.8556
18160THY    CP244460   5.514   6.177   5.114  0.4786 -0.0619 -0.3891
18160THY    HP244461   5.448   6.115   5.051  0.2338  0.1692 -0.3677
18160THY    HP344462   5.493   6.282   5.094  2.5899 -1.4162 -0.1906
18160THY    HP444463   5.516   6.138   5.217  0.7595 -1.1237 -3.5262
18160THY    CP344464   5.694   6.012   5.064  0.0983 -0.2175  0.2408
18160THY    HP544465   5.620   5.975   4.993 -2.3010  2.3665 -0.2691
18160THY    HP644466   5.676   5.962   5.160 -2.5679  0.1961  1.7973
18160THY    HP744467   5.795   6.005   5.023  0.3145  0.5575 -2.0811
18160THY    CA344468   5.828   6.199   5.261  0.6676  0.2332 -0.2930
18160THY    HA344469   5.826   6.094   5.286  1.6260 -0.3507 -0.4595
18160THY    CA444470   5.915   6.287   5.329  0.7385  0.1108  0.0150
18160THY    HA444471   5.977   6.259   5.414 -2.3561  2.6766  0.3327
18160THY    CA544472   5.921   6.418   5.290  0.4098  0.4195 -0.1634
18160THY    CM144473   6.009   6.503   5.369 -0.3126  0.0722  0.1840
18160THY    HM144474   5.956   6.534   5.460  0.8452  0.8152  0.0371
18160THY    HM244475   6.043   6.592   5.315  1.1738  2.5081  1.1879
18160THY    HM344476   6.098   6.449   5.403  0.3499 -2.5226 -0.5401
18160THY    CA644477   5.849   6.467   5.183 -1.1276 -0.0782  0.3455
18160THY    HA644478   5.864   6.571   5.155  0.2671  0.7844  0.4083
18161THY      O44479   8.478   3.088   6.018  0.2744 -0.2116 -0.3119
18161THY     HO44480   8.535   3.132   6.084  0.6561 -1.3717  0.9853
18161THY    CA144481   8.357   3.148   6.028 -0.0083 -0.5453 -0.2415
18161THY    CA244482   8.272   3.186   5.920  0.2183  0.9125 -0.0649
18161THY    CP144483   8.323   3.155   5.780 -0.2005 -0.1686 -0.2204
18161THY    HP144484   8.373   3.059   5.760  1.9274 -0.4945  0.8979
18161THY    CP244485   8.435   3.255   5.743 -1.1455  0.4866 -1.1587
18161THY    HP244486   8.447   3.255   5.634  2.4061  0.7654 -1.0626
18161THY    HP344487   8.526   3.215   5.789  0.1118  0.3292  1.3568
18161THY    HP444488   8.409   3.358   5.770  0.4191 -0.1626 -0.5639
18161THY    CP344489   8.209   3.165   5.673  0.0535  0.7464 -0.0255
18161THY    HP544490   8.163   3.265   5.670 -0.5505  0.6791 -0.3028
18161THY    HP644491   8.130   3.091   5.690 -0.2058 -1.9671 -0.4891
18161THY    HP744492   8.245   3.144   5.572 -0.3886  0.1544  1.8190
18161THY    CA344493   8.159   3.269   5.952  0.1157  0.0340 -0.2912
18161THY    HA344494   8.098   3.309   5.871 -0.7084  0.5288 -0.5263
18161THY    CA444495   8.120   3.291   6.080  0.5750  0.1109  0.3195
18161THY    HA444496   8.027   3.344   6.097  0.2431  1.4498 -0.6403
18161THY    CA544497   8.193   3.238   6.193 -0.1626  0.2160  0.5529
18161THY    CM144498   8.142   3.240   6.331  0.2423 -0.4101 -0.2320
18161THY    HM144499   8.034   3.249   6.348  0.4035  0.9176 -0.4506
18161THY    HM244500   8.182   3.332   6.375  1.6828 -3.9578  0.9939
18161THY    HM344501   8.173   3.150   6.387 -1.1229  2.0735  0.7263
18161THY    CA644502   8.316   3.178   6.164 -0.1900 -1.4246  0.2921
18161THY    HA644503   8.384   3.167   6.247  0.6346 -2.2383 -1.0436
18162THY      O44504   2.231   5.087   6.195  0.6815  0.1512 -0.0613
18162THY     HO44505   2.182   5.013   6.235 -0.4895  0.1639  0.6892
18162THY    CA144506   2.238   5.173   6.297  0.1450 -0.0108 -0.4153
18162THY    CA244507   2.265   5.310   6.286  0.1740  0.6982  0.4833
18162THY    CP144508   2.313   5.366   6.147  0.7892 -0.9642 -0.3303
18162THY    HP144509   2.258   5.312   6.069 -0.6242 -0.3668  0.2139
18162THY    CP244510   2.463   5.322   6.142 -0.1837 -0.9278  0.3857
18162THY    HP244511   2.522   5.366   6.061  0.0086  1.1856  4.5030
18162THY    HP344512   2.464   5.213   6.129 -1.6426 -0.9234  0.3609
18162THY    HP444513   2.524   5.348   6.229  1.5637 -1.8856 -0.3283
18162THY    CP344514   2.309   5.513   6.123  0.3799  0.1671 -0.1871
18162THY    HP544515   2.397   5.564   6.164  1.3370 -0.7428 -1.0479
18162THY    HP644516   2.218   5.565   6.152 -0.3080 -0.3311 -1.0836
18162THY    HP744517   2.319   5.532   6.015 -1.9358  0.1223  1.0265
18162THY    CA344518   2.233   5.393   6.393  0.0371  0.4790 -0.2750
18162THY    HA344519   2.242   5.500   6.381  0.6621 -1.0473 -0.4753
18162THY    CA444520   2.187   5.336   6.513  0.0034  0.7060  0.1359
18162THY    HA444521   2.165   5.401   6.597 -2.2008  0.5584 -0.3224
18162THY    CA544522   2.158   5.206   6.525  0.0671 -0.1555  0.3544
18162THY    CM144523   2.118   5.142   6.661 -0.6366  0.0016 -0.5877
18162THY    HM144524   2.214   5.117   6.707  0.5453 -0.9041  1.9578
18162THY    HM244525   2.066   5.047   6.643  2.0656 -1.1963 -1.9585
18162THY    HM344526   2.065   5.213   6.726  2.4686  1.6140  0.4338
18162THY    CA644527   2.186   5.127   6.415 -0.6741 -0.2711  0.3025
18162THY    HA644528   2.153   5.024   6.423 -1.4629 -0.5348  0.5344
18163THY      O44529   8.736   4.691   5.928  0.1066  0.1461 -0.1458
18163THY     HO44530   8.759   4.754   5.857  0.6736 -0.4164 -0.9511
18163THY    CA144531   8.824   4.592   5.901  0.3119 -0.3486  0.2281
18163THY    CA244532   8.863   4.499   6.007  0.3170 -0.0527 -0.1792
18163THY    CP144533   8.801   4.504   6.149  0.0281  0.4319 -0.1234
18163THY    HP144534   8.742   4.595   6.163  0.1489  1.7848 -0.2439
18163THY    CP244535   8.920   4.527   6.237  0.0620 -0.6621 -0.5871
18163THY    HP244536   8.882   4.528   6.340  1.9449  0.1162 -2.0553
18163THY    HP344537   8.977   4.618   6.217  0.1405  1.6076 -0.0900
18163THY    HP444538   8.985   4.440   6.251  0.6698 -0.7174 -0.1469
18163THY    CP344539   8.721   4.375   6.186  0.2905  0.6392  0.1240
18163THY    HP544540   8.686   4.380   6.290 -2.2145 -0.1652  0.9302
18163THY    HP644541   8.789   4.289   6.187  0.2359 -0.3203  0.0641
18163THY    HP744542   8.639   4.339   6.123  0.1824  1.8216 -1.8431
18163THY    CA344543   8.957   4.403   5.975 -0.0908  0.2853  0.0073
18163THY    HA344544   8.995   4.337   6.053 -1.9393  2.3495  1.2170
18163THY    CA444545   9.010   4.401   5.845 -0.3853  0.1892  0.4978
18163THY    HA444546   9.093   4.334   5.826  0.1876  0.8017  1.0241
18163THY    CA544547   8.963   4.479   5.742  0.1459 -0.0479 -0.3031
18163THY    CM144548   9.014   4.465   5.600 -0.0720 -0.6796 -0.3681
18163THY    HM144549   8.966   4.379   5.550 -0.6565  2.0414 -1.7525
18163THY    HM244550   9.123   4.453   5.600  0.2327  0.3913  1.8646
18163THY    HM344551   8.991   4.556   5.543  1.5557 -1.3345 -0.3367
18163THY    CA644552   8.875   4.585   5.774  0.0009  0.2127 -0.2865
18163THY    HA644553   8.844   4.651   5.694 -1.3590  0.4916 -0.5544
18164THY      O44554   1.687   4.072   4.654  0.7052 -0.7400 -0.4322
18164THY     HO44555   1.730   4.028   4.729 -1.2851  0.7095 -0.0458
18164THY    CA144556   1.675   3.976   4.562 -0.2524  0.1999  0.0246
18164THY    CA244557   1.656   4.005   4.424 -0.1046 -0.0463 -0.2614
18164THY    CP144558   1.625   4.141   4.374  0.6023 -0.1770  0.2125
18164THY    HP144559   1.607   4.202   4.464 -2.4426  2.7536 -4.4217
18164THY    CP244560   1.482   4.145   4.306 -0.6741 -0.3870  0.1550
18164THY    HP244561   1.450   4.248   4.288 -2.3285  0.2638 -0.1980
18164THY    HP344562   1.414   4.105   4.383  0.5700  0.7403  0.1523
18164THY    HP444563   1.469   4.087   4.214 -1.9792  0.0282 -0.2547
18164THY    CP344564   1.734   4.214   4.293 -0.3591  0.4828  0.0777
18164THY    HP544565   1.724   4.195   4.186 -0.8414  0.8976 -2.3435
18164THY    HP644566   1.836   4.203   4.332 -1.3850  3.6881  0.7546
18164THY    HP744567   1.705   4.319   4.285  1.6320 -3.0813  0.5212
18164THY    CA344568   1.646   3.891   4.334 -0.1020  0.2509  0.1155
18164THY    HA344569   1.616   3.903   4.231 -0.4394  0.3256 -0.0668
18164THY    CA444570   1.681   3.765   4.382  0.3986 -0.0715 -0.1757
18164THY    HA444571   1.691   3.679   4.316  0.8239 -1.1281  0.6801
18164THY    CA544572   1.717   3.738   4.516 -0.6224  0.5558  0.3386
18164THY    CM144573   1.759   3.606   4.574  0.4577  0.5835  0.8332
18164THY    HM144574   1.851   3.620   4.632  2.4941 -2.0794 -0.5654
18164THY    HM244575   1.784   3.552   4.482 -1.8476 -0.0691  0.7658
18164THY    HM344576   1.683   3.557   4.635  2.5333  0.8585 -2.3111
18164THY    CA644577   1.705   3.845   4.604 -0.2686 -0.0826  0.5565
18164THY    HA644578   1.720   3.820   4.708 -1.6527 -0.2721 -1.2426
18165THY      O44579   7.406   7.448   6.273  0.1781 -0.0380 -0.2696
18165THY     HO44580   7.353   7.387   6.327  1.4043  0.6893 -0.7185
18165THY    CA144581   7.429   7.372   6.161  0.2031 -0.1993  0.0796
18165THY    CA244582   7.556   7.346   6.105  0.2000  0.0536  0.0776
18165THY    CP144583   7.674   7.393   6.192  0.8830  0.2728  0.3947
18165THY    HP144584   7.643   7.419   6.293  2.1075  0.2233  2.2006
18165THY    CP244585   7.720   7.523   6.137  0.2620 -0.3346 -0.2935
18165THY    HP244586   7.729   7.518   6.028 -1.4750 -0.4926 -0.2861
18165THY    HP344587   7.805   7.568   6.190  0.1511 -0.0255 -0.4417
18165THY    HP444588   7.640   7.596   6.151  1.1089 -0.9447  0.7784
18165THY    CP344589   7.779   7.281   6.203  0.3850  0.1296  0.5387
18165THY    HP544590   7.735   7.187   6.238 -2.0939 -0.0173  1.5548
18165THY    HP644591   7.853   7.300   6.282  1.1450 -0.0644 -1.3749
18165THY    HP744592   7.832   7.267   6.108 -0.2841 -0.3621  1.2502
18165THY    CA344593   7.568   7.283   5.985  0.0433  0.1730 -0.3012
18165THY    HA344594   7.665   7.276   5.937 -0.0275  0.1781 -1.4020
18165THY    CA444595   7.454   7.241   5.917  0.0641 -0.5571 -0.5965
18165THY    HA444596   7.453   7.199   5.817  1.8279 -0.2986 -1.3296
18165THY    CA544597   7.327   7.267   5.973  0.5566 -0.6462  0.7644
18165THY    CM144598   7.203   7.220   5.908  0.4518 -0.1129 -0.2492
18165THY    HM144599   7.210   7.213   5.799 -1.4928 -0.2780 -0.2974
18165THY    HM244600   7.118   7.287   5.930 -0.7933 -0.3295 -1.7208
18165THY    HM344601   7.174   7.118   5.937  0.1024  0.5326  0.0213
18165THY    CA644602   7.314   7.332   6.097  0.1849 -0.3606  0.3511
18165THY    HA644603   7.216   7.343   6.142  0.3837  0.8777 -2.1661
18166THY      O44604   5.396   7.454   5.226 -0.1820  0.0294 -1.0893
18166THY     HO44605   5.489   7.483   5.234 -0.1671 -1.9671 -0.4575
18166THY    CA144606   5.373   7.446   5.093  0.5085  1.0404  0.5045
18166THY    CA244607   5.237   7.433   5.049  0.7055  0.2162 -0.0290
18166THY    CP144608   5.120   7.435   5.156 -0.2575  0.4026 -0.1118
18166THY    HP144609   5.154   7.447   5.260 -0.2635  0.1982  2.0525
18166THY    CP244610   5.035   7.308   5.141  0.2928 -0.7067  0.1600
18166THY    HP244611   5.105   7.223   5.146 -0.9954 -2.0834 -1.0299
18166THY    HP344612   4.975   7.307   5.049 -2.6382  1.0777 -0.2427
18166THY    HP444613   4.952   7.296   5.212 -1.1111 -2.2430  0.4128
18166THY    CP344614   5.032   7.554   5.140  0.8826 -0.0395 -0.3272
18166THY    HP544615   4.980   7.561   5.044 -0.0795  0.5259  0.6025
18166THY    HP644616   5.092   7.645   5.134  0.1838  0.9398  0.2231
18166THY    HP744617   4.948   7.570   5.209  1.7150  1.1276 -0.8483
18166THY    CA344618   5.212   7.441   4.913  0.3592  0.2413 -0.4728
18166THY    HA344619   5.109   7.453   4.880  0.2297  0.8368  0.1021
18166THY    CA444620   5.316   7.441   4.822 -0.0695  0.1671  0.2409
18166THY    HA444621   5.303   7.443   4.715  0.6185  0.0902  1.6739
18166THY    CA544622   5.450   7.438   4.862  0.1809 -0.4931  0.9863
18166THY    CM144623   5.558   7.450   4.759 -0.3312 -0.3717 -0.3529
18166THY    HM144624   5.627   7.530   4.789 -0.2827 -0.9127 -0.1907
18166THY    HM244625   5.522   7.475   4.658 -0.1829 -0.2868  0.2277
18166THY    HM344626   5.617   7.359   4.755 -1.4860  1.4924 -1.2353
18166THY    CA644627   5.473   7.448   5.004 -1.1557  0.4406  0.3570
18166THY    HA644628   5.574   7.474   5.032 -0.4576 -1.8404  0.3450
18167THY      O44629   3.481   5.583   4.621  0.1459 -0.4421 -0.0849
18167THY     HO44630   3.445   5.493   4.629 -2.3858  3.4027  1.0160
18167THY    CA144631   3.588   5.588   4.538 -0.0232 -0.4752  0.8297
18167THY    CA244632   3.619   5.703   4.473  0.1740  0.1582  0.4861
18167THY    CP144633   3.550   5.833   4.514 -0.0591  0.2101 -0.6504
18167THY    HP144634   3.443   5.811   4.515  0.0142 -1.1753 -1.2129
18167THY    CP244635   3.548   5.932   4.396 -0.4264 -0.6095 -0.0491
18167THY    HP244636   3.487   6.022   4.408  0.7454  1.9603  0.4915
18167THY    HP344637   3.515   5.870   4.312  0.7744  0.0716 -1.6885
18167THY    HP444638   3.652   5.962   4.377 -0.6566  0.7172  1.7225
18167THY    CP344639   3.612   5.905   4.639  0.9112  0.3935  0.0511
18167THY    HP544640   3.633   5.836   4.722  2.7306  0.5057  0.6869
18167THY    HP644641   3.543   5.981   4.677  1.3674  1.1198  0.1175
18167THY    HP744642   3.715   5.936   4.614  0.8094  0.8221  0.7551
18167THY    CA344643   3.722   5.699   4.384 -0.5596 -0.0200 -0.2519
18167THY    HA344644   3.750   5.785   4.325 -0.7520  0.7027  0.3104
18167THY    CA444645   3.784   5.579   4.351 -0.6160  0.5511 -0.3122
18167THY    HA444646   3.864   5.587   4.279 -1.8130 -0.7417  0.4801
18167THY    CA544647   3.752   5.459   4.415 -0.6237  0.6745  0.1615
18167THY    CM144648   3.820   5.327   4.379  0.3471 -0.0438 -1.2543
18167THY    HM144649   3.770   5.247   4.435 -1.0118 -2.2744 -2.0817
18167THY    HM244650   3.927   5.332   4.401  0.6207 -1.1910 -1.6115
18167THY    HM344651   3.816   5.294   4.274  1.0757 -1.0191  1.5048
18167THY    CA644652   3.654   5.464   4.510  0.1014 -0.3578 -0.2083
18167THY    HA644653   3.614   5.380   4.565  1.2187 -0.3910 -0.7762
18168THY      O44654   1.374   2.493   7.431 -0.0910  0.4821 -0.1839
18168THY     HO44655   1.296   2.448   7.395  1.2117 -3.5038  0.3125
18168THY    CA144656   1.391   2.594   7.340 -0.1371 -0.9848  0.4652
18168THY    CA244657   1.517   2.640   7.304 -0.5308 -0.1938 -1.1027
18168THY    CP144658   1.649   2.581   7.362 -0.0908  0.1418  1.3744
18168THY    HP144659   1.624   2.525   7.453  0.3584 -0.0668  0.8153
18168THY    CP244660   1.757   2.686   7.394  0.0907  0.1118 -0.0584
18168THY    HP244661   1.801   2.725   7.302 -2.0730 -0.6591  0.7011
18168THY    HP344662   1.829   2.644   7.466 -1.9104  0.9520 -2.2691
18168THY    HP444663   1.711   2.772   7.445 -0.3839 -0.1661 -0.1486
18168THY    CP344664   1.721   2.476   7.256 -0.0187 -0.3982 -0.1603
18168THY    HP544665   1.791   2.403   7.299  0.3213  0.0416  0.4193
18168THY    HP644666   1.780   2.511   7.171  0.8980 -0.6256 -2.1101
18168THY    HP744667   1.638   2.409   7.231 -1.5676  2.9641  0.3094
18168THY    CA344668   1.526   2.746   7.218  0.7009 -0.1976 -0.4813
18168THY    HA344669   1.620   2.791   7.189  0.2541 -2.2734 -0.7479
18168THY    CA444670   1.408   2.800   7.162 -0.2805 -0.3410 -0.1448
18168THY    HA444671   1.405   2.882   7.091 -1.6341  0.8008  0.8632
18168THY    CA544672   1.282   2.752   7.196  0.2975  0.4102 -0.1925
18168THY    CM144673   1.150   2.800   7.136  0.1759  0.4655  0.1007
18168THY    HM144674   1.145   2.794   7.027  1.7729  0.4272 -1.1216
18168THY    HM244675   1.150   2.906   7.163  0.0166 -1.9436  0.7547
18168THY    HM344676   1.065   2.745   7.178  0.8321 -1.0676 -2.2269
18168THY    CA644677   1.278   2.648   7.288  0.5039  0.8717  1.1206
18168THY    HA644678   1.183   2.604   7.319 -0.0720 -1.6123  0.4598
18169THY      O44679   6.802   4.517   5.201 -0.0668  0.5724  0.5033
18169THY     HO44680   6.829   4.518   5.107  1.1817  0.8780 -0.7951
18169THY    CA144681   6.787   4.391   5.229  0.0169  0.2724  0.2279
18169THY    CA244682   6.711   4.344   5.333  0.3228 -0.1409 -0.2792
18169THY    CP144683   6.633   4.437   5.424 -0.4073 -0.4184 -0.9022
18169THY    HP144684   6.632   4.543   5.397 -0.3590 -2.5825 -1.4030
18169THY    CP244685   6.671   4.442   5.574  0.0277 -0.3071 -0.2616
18169THY    HP244686   6.616   4.511   5.638  2.0438  0.9215  0.2987
18169THY    HP344687   6.774   4.477   5.588  0.2849 -0.4638 -0.9412
18169THY    HP444688   6.655   4.343   5.617  1.0072 -1.2969 -0.8816
18169THY    CP344689   6.481   4.410   5.402 -0.1808  0.1489  0.8878
18169THY    HP544690   6.449   4.412   5.297 -0.6474  0.1701 -1.5357
18169THY    HP644691   6.421   4.478   5.463 -1.8514  1.1459 -1.3352
18169THY    HP744692   6.459   4.305   5.426 -2.5832 -0.8753  1.0796
18169THY    CA344693   6.697   4.206   5.352 -0.2041  0.1141  0.0534
18169THY    HA344694   6.627   4.164   5.424  1.0966  0.0280 -2.3955
18169THY    CA444695   6.769   4.119   5.274  0.0414  0.2748  0.5398
18169THY    HA444696   6.753   4.013   5.289 -0.9420  1.5429  0.8364
18169THY    CA544697   6.852   4.164   5.175 -0.9885  0.2168 -0.5514
18169THY    CM144698   6.937   4.059   5.102  0.3751  0.0324 -0.0012
18169THY    HM144699   6.992   4.107   5.020  0.8456  0.8139  0.8241
18169THY    HM244700   6.875   3.986   5.048 -0.9633  1.7639 -0.2004
18169THY    HM344701   7.012   4.004   5.158  0.6739 -0.2836  0.0819
18169THY    CA644702   6.858   4.300   5.147  0.0797  0.4634  0.6536
18169THY    HA644703   6.926   4.342   5.073  1.9353  1.1861 -0.9463
18170THY      O44704   7.050   1.078   4.136 -0.0662  0.2044 -0.0412
18170THY     HO44705   7.101   1.159   4.155 -1.0697 -0.7199  0.8554
18170THY    CA144706   7.125   0.969   4.166 -0.6333  0.5871 -0.0005
18170THY    CA244707   7.076   0.841   4.186  0.1366 -0.7332  0.1883
18170THY    CP144708   6.930   0.806   4.158  0.2100  0.2017 -0.3587
18170THY    HP144709   6.872   0.898   4.148  2.4115  1.5332  1.2534
18170THY    CP244710   6.862   0.724   4.271 -0.4202  0.4714 -0.4189
18170THY    HP244711   6.905   0.755   4.367 -1.4211  0.7034  0.2955
18170THY    HP344712   6.873   0.616   4.255  2.2230 -0.9340 -0.0017
18170THY    HP444713   6.753   0.741   4.270 -0.5618  1.5190 -1.1598
18170THY    CP344714   6.921   0.736   4.022 -0.2564 -0.4190 -0.0124
18170THY    HP544715   6.974   0.640   4.030  2.0548  0.2951  1.2372
18170THY    HP644716   6.963   0.792   3.937 -1.4446 -0.2489  1.1756
18170THY    HP744717   6.814   0.722   4.005 -0.5569 -1.5494  2.9417
18170THY    CA344718   7.165   0.737   4.232  0.3008 -0.5402 -0.8180
18170THY    HA344719   7.136   0.633   4.242  0.1689 -0.8945 -0.8188
18170THY    CA444720   7.297   0.772   4.258 -0.6454  0.5201  0.9312
18170THY    HA444721   7.364   0.697   4.300 -2.1361  1.7359  0.2172
18170THY    CA544722   7.348   0.898   4.230 -0.6010  0.1591 -0.1723
18170THY    CM144723   7.497   0.923   4.240  0.0213  0.6906  0.2850
18170THY    HM144724   7.529   0.920   4.345  2.3112  0.0715  1.1022
18170THY    HM244725   7.512   1.022   4.196  1.3123  1.4208  0.4291
18170THY    HM344726   7.549   0.844   4.185 -2.7023 -0.5902 -0.7626
18170THY    CA644727   7.258   0.997   4.185 -0.5379  0.6198  0.0365
18170THY    HA644728   7.295   1.096   4.163 -0.0385 -1.0363 -0.4841
18171THY      O44729   8.585   0.802   7.079  0.1995  0.0272  0.6509
18171THY     HO44730   8.595   0.842   7.167 -0.1956  0.1443  0.4985
18171THY    CA144731   8.529   0.902   7.010 -0.2999 -0.5318 -0.3627
18171THY    CA244732   8.444   0.884   6.902 -0.2199 -0.1117  0.7211
18171THY    CP144733   8.385   0.739   6.858  0.4927 -0.4224  0.5735
18171THY    HP144734   8.410   0.654   6.922  1.3357 -1.6355 -0.1166
18171THY    CP244735   8.447   0.696   6.719 -0.1653  0.5061  0.0961
18171THY    HP244736   8.423   0.771   6.643 -0.1809 -0.1737 -0.5846
18171THY    HP344737   8.402   0.599   6.692  0.4542  0.6232 -0.2318
18171THY    HP444738   8.555   0.685   6.733 -0.2991  0.8476 -0.8712
18171THY    CP344739   8.233   0.737   6.858  0.5458  0.2479 -0.0839
18171THY    HP544740   8.192   0.815   6.793  0.2775 -0.5615 -0.8869
18171THY    HP644741   8.194   0.734   6.960 -2.0162 -0.6792 -2.4119
18171THY    HP744742   8.193   0.644   6.816  0.1595  1.4554 -0.4811
18171THY    CA344743   8.402   0.995   6.834 -0.0831  0.3720  0.1602
18171THY    HA344744   8.325   0.988   6.757  1.9755 -1.6340 -2.0636
18171THY    CA444745   8.457   1.125   6.863 -0.1069 -0.4623  0.3741
18171THY    HA444746   8.437   1.214   6.805  0.4568  0.1215  0.8974
18171THY    CA544747   8.541   1.137   6.971 -0.7808 -0.3461  0.4919
18171THY    CM144748   8.610   1.266   7.000  0.5363  0.1238  0.6103
18171THY    HM144749   8.669   1.255   7.092 -0.1755  0.7153  1.5403
18171THY    HM244750   8.554   1.360   6.993  0.3845 -1.0236  0.4413
18171THY    HM344751   8.696   1.272   6.932  1.7786  1.4676 -1.0605
18171THY    CA644752   8.571   1.026   7.049  0.0796  0.1890  0.9365
18171THY    HA644753   8.643   1.034   7.130  0.0631  0.2177  0.7894
18172THY      O44754   7.358   0.950   4.604  0.4284  0.0189  0.2433
18172THY     HO44755   7.350   0.903   4.519  2.7458  0.1329 -0.5109
18172THY    CA144756   7.243   1.022   4.630 -0.1968 -0.2163 -0.0366
18172THY    CA244757   7.245   1.105   4.741  0.1704 -0.5111 -0.2214
18172THY    CP144758   7.369   1.115   4.833  0.6674  0.0511  0.0872
18172THY    HP144759   7.432   1.026   4.820 -0.3967 -2.4719 -0.3826
18172THY    CP244760   7.330   1.117   4.982  0.5423 -0.4741 -0.6642
18172THY    HP244761   7.420   1.100   5.041 -1.2044  2.4504 -0.3413
18172THY    HP344762   7.264   1.038   5.018  0.2457  2.9579  0.9844
18172THY    HP444763   7.274   1.210   4.998  0.3880 -4.9365  0.2305
18172THY    CP344764   7.458   1.243   4.806  0.2376  0.1266 -0.3262
18172THY    HP544765   7.540   1.248   4.878 -1.2137  1.7686  1.8565
18172THY    HP644766   7.407   1.339   4.825  1.0127 -1.2675  0.3876
18172THY    HP744767   7.488   1.238   4.700  2.3471  0.4813  2.3795
18172THY    CA344768   7.127   1.186   4.760  0.0574  0.0133  0.5217
18172THY    HA344769   7.115   1.254   4.844 -3.0136  1.2517 -1.3510
18172THY    CA444770   7.017   1.170   4.672  0.0978 -0.0994 -0.2968
18172THY    HA444771   6.928   1.232   4.675  0.2998 -1.7932  0.1431
18172THY    CA544772   7.020   1.080   4.566  0.3312 -0.9168  0.4207
18172THY    CM144773   6.901   1.074   4.477  0.3219 -0.7915  0.2319
18172THY    HM144774   6.815   1.125   4.521  0.5439 -0.0668 -0.0063
18172THY    HM244775   6.897   0.967   4.454 -0.3405 -0.2880  0.1471
18172THY    HM344776   6.925   1.126   4.384 -0.0510 -0.3521  1.2028
18172THY    CA644777   7.134   1.009   4.544 -0.6298 -0.5337  0.3358
18172THY    HA644778   7.140   0.941   4.459  0.1432  0.6648 -1.1659
18173THY      O44779   7.542   2.183   4.780  0.0360  0.2493  0.0399
18173THY     HO44780   7.639   2.177   4.780  0.3060 -1.9490  2.4232
18173THY    CA144781   7.506   2.307   4.743 -0.5752  0.1635  0.3504
18173THY    CA244782   7.379   2.352   4.755  0.3240  0.2792 -0.4933
18173THY    CP144783   7.277   2.272   4.840 -0.4637  0.0485  0.3974
18173THY    HP144784   7.282   2.170   4.799  1.2113  0.0453  0.4451
18173THY    CP244785   7.132   2.317   4.823  0.6305 -0.0828  0.4366
18173THY    HP244786   7.111   2.306   4.716 -1.0225  0.1256  1.3108
18173THY    HP344787   7.109   2.417   4.862 -1.3723 -0.0810  0.0012
18173THY    HP444788   7.070   2.243   4.874 -1.7448 -1.4230  1.4041
18173THY    CP344789   7.312   2.276   4.990 -0.4025  0.2024  0.5999
18173THY    HP544790   7.408   2.227   5.011 -0.8790 -2.0990 -1.5366
18173THY    HP644791   7.237   2.233   5.058  1.2477  1.8302  0.1534
18173THY    HP744792   7.310   2.379   5.027 -2.6737  0.3408  0.5640
18173THY    CA344793   7.350   2.477   4.700  0.2917  0.3581  0.7829
18173THY    HA344794   7.254   2.526   4.710 -1.5823 -1.4571 -2.1811
18173THY    CA444795   7.454   2.552   4.637 -0.1750 -0.5188 -0.1829
18173THY    HA444796   7.441   2.652   4.596 -1.0480 -0.4711 -0.2703
18173THY    CA544797   7.581   2.502   4.623  0.7152 -0.3646  0.4925
18173THY    CM144798   7.686   2.568   4.554 -0.8522  0.8169  0.1822
18173THY    HM144799   7.737   2.494   4.492 -1.5393 -1.9591  1.8822
18173THY    HM244800   7.774   2.602   4.611 -0.9947  0.8981  0.4253
18173THY    HM344801   7.645   2.644   4.487  0.7325 -0.5710 -0.1311
18173THY    CA644802   7.602   2.377   4.675  0.2415  0.1062 -0.5212
18173THY    HA644803   7.699   2.332   4.653 -0.8083 -2.1731 -1.8450
18174THY      O44804   2.260   5.705   6.989 -0.2830 -0.0840  0.2485
18174THY     HO44805   2.189   5.769   7.003 -0.4431 -1.0786  0.3097
18174THY    CA144806   2.254   5.615   7.098  0.0431 -0.0958  0.2292
18174THY    CA244807   2.338   5.507   7.108  0.1033 -0.0950  0.5069
18174THY    CP144808   2.441   5.482   6.992 -0.2525 -0.9965 -0.2282
18174THY    HP144809   2.444   5.573   6.931  0.3271  0.8734  1.0595
18174THY    CP244810   2.409   5.364   6.891 -0.2719 -0.4597 -0.3125
18174THY    HP244811   2.335   5.390   6.815  0.3468 -1.0894 -0.3623
18174THY    HP344812   2.364   5.279   6.944 -3.1119 -0.5325  1.0329
18174THY    HP444813   2.498   5.341   6.831 -0.5738 -1.3160  0.6724
18174THY    CP344814   2.581   5.452   7.052 -0.6037 -0.2220  0.2255
18174THY    HP544815   2.580   5.357   7.107  0.5306  1.5011  1.1528
18174THY    HP644816   2.602   5.527   7.130  0.7723 -2.2207  2.0431
18174THY    HP744817   2.670   5.444   6.988  0.0893  0.6629  0.6795
18174THY    CA344818   2.333   5.425   7.220  0.2607 -0.1455  0.4792
18174THY    HA344819   2.404   5.344   7.231  1.5103  0.9035  1.6747
18174THY    CA444820   2.230   5.442   7.314  0.9793  0.2721 -0.4855
18174THY    HA444821   2.218   5.373   7.397  3.6179  1.5228  0.4151
18174THY    CA544822   2.140   5.543   7.296  0.6271  0.6586 -0.1492
18174THY    CM144823   2.029   5.560   7.395 -0.6830 -0.9725  0.3596
18174THY    HM144824   2.078   5.614   7.477  0.2990 -0.3157 -1.4816
18174THY    HM244825   1.990   5.464   7.428  1.6146 -0.0052 -0.3052
18174THY    HM344826   1.950   5.623   7.352  1.1489 -0.0791  3.5276
18174THY    CA644827   2.156   5.636   7.195 -0.5256 -0.8530 -0.1936
18174THY    HA644828   2.085   5.716   7.176 -1.6800 -1.7799 -1.3930
18175THY      O44829   7.217   0.515   6.156  0.0140 -0.2109 -1.0549
18175THY     HO44830   7.132   0.471   6.140  0.5422  0.1049 -2.2268
18175THY    CA144831   7.303   0.423   6.113 -0.6119  0.8607  0.0483
18175THY    CA244832   7.404   0.374   6.196  0.6217  0.2018 -0.5698
18175THY    CP144833   7.422   0.438   6.335 -0.4755 -0.3745 -0.0690
18175THY    HP144834   7.393   0.543   6.337 -3.1589 -1.0364 -0.7246
18175THY    CP244835   7.567   0.442   6.374 -0.7813  0.0013 -0.6939
18175THY    HP244836   7.611   0.344   6.395  2.1450  1.6795  0.8398
18175THY    HP344837   7.573   0.512   6.458 -0.7824 -0.8086  0.2998
18175THY    HP444838   7.630   0.488   6.297 -1.4762  0.0615  0.4170
18175THY    CP344839   7.337   0.356   6.442  0.3562 -0.0756  0.1518
18175THY    HP544840   7.367   0.251   6.452 -0.7127 -0.2129 -0.1782
18175THY    HP644841   7.233   0.346   6.409  0.8833 -1.8353  0.1323
18175THY    HP744842   7.338   0.401   6.542 -1.0556 -0.3795  0.8994
18175THY    CA344843   7.469   0.258   6.162 -0.2358  0.0072 -0.1573
18175THY    HA344844   7.557   0.228   6.218  0.5071 -1.0270  0.0477
18175THY    CA444845   7.437   0.192   6.044  0.9100  0.6060  0.8972
18175THY    HA444846   7.480   0.095   6.021  0.1120 -0.4571  0.7851
18175THY    CA544847   7.331   0.245   5.962  0.3438 -0.9766  0.1480
18175THY    CM144848   7.279   0.158   5.854  0.2313  0.2688  0.0766
18175THY    HM144849   7.366   0.119   5.800  0.6705  1.6614 -0.9593
18175THY    HM244850   7.209   0.216   5.793 -0.2300  0.5468 -0.1790
18175THY    HM344851   7.226   0.073   5.899 -0.4670 -0.8227 -0.0745
18175THY    CA644852   7.264   0.359   5.996  0.4841 -0.4464  0.3431
18175THY    HA644853   7.170   0.382   5.946 -1.6486  1.9092 -2.4047
18176THY      O44854   6.623   6.860   2.551 -0.3483  0.7234  0.1642
18176THY     HO44855   6.662   6.787   2.501 -2.7930 -2.1648  0.6314
18176THY    CA144856   6.567   6.803   2.661  0.2577  0.0869  0.2433
18176THY    CA244857   6.477   6.877   2.740  0.8218  0.2851 -0.1581
18176THY    CP144858   6.426   7.017   2.688 -0.2800 -0.2069 -0.2214
18176THY    HP144859   6.461   7.031   2.585  0.6665 -0.1029 -1.6618
18176THY    CP244860   6.485   7.137   2.769 -0.0362 -0.6588  0.8419
18176THY    HP244861   6.466   7.132   2.877  1.7154 -0.3742 -0.5824
18176THY    HP344862   6.448   7.236   2.743  0.9824 -1.0493  1.1245
18176THY    HP444863   6.594   7.143   2.767  0.1965 -0.7331 -1.8909
18176THY    CP344864   6.267   7.024   2.690  0.1332 -0.3972 -0.5090
18176THY    HP544865   6.234   7.117   2.643 -0.1595  1.5262  0.3876
18176THY    HP644866   6.231   7.020   2.793  0.1870 -0.1948  2.2601
18176THY    HP744867   6.216   6.941   2.640 -0.5424  1.4424 -1.2569
18176THY    CA344868   6.428   6.829   2.864  0.7616 -0.4104 -0.1971
18176THY    HA344869   6.341   6.874   2.912  1.0190 -0.6400  0.5530
18176THY    CA444870   6.465   6.694   2.898  0.0824 -0.1264 -0.3330
18176THY    HA444871   6.414   6.641   2.978  0.1830  0.0021 -0.2355
18176THY    CA544872   6.560   6.629   2.824 -0.3002 -0.0896  0.3839
18176THY    CM144873   6.600   6.484   2.863 -0.1264 -0.0524 -0.1556
18176THY    HM144874   6.692   6.473   2.921  0.2962 -0.8024 -0.5955
18176THY    HM244875   6.610   6.427   2.771 -3.0573 -1.8156  1.8672
18176THY    HM344876   6.524   6.442   2.931  0.7584  0.7236 -0.5368
18176THY    CA644877   6.615   6.684   2.707 -0.0203 -0.4374  0.7131
18176THY    HA644878   6.691   6.627   2.655  0.8320  2.5884 -1.1561
18177THY      O44879   5.053   4.589   2.309 -0.5290 -0.3541 -0.5684
18177THY     HO44880   4.969   4.637   2.300  0.7408  0.8428  2.0878
18177THY    CA144881   5.144   4.671   2.258  0.8875  0.4645  0.0070
18177THY    CA244882   5.276   4.637   2.251 -0.0611 -0.0484  0.0115
18177THY    CP144883   5.313   4.490   2.279  0.8778  0.1020 -0.2170
18177THY    HP144884   5.240   4.437   2.340 -0.8227 -0.8990  0.8691
18177THY    CP244885   5.443   4.479   2.359 -1.0924  0.8201 -0.2995
18177THY    HP244886   5.411   4.525   2.453 -0.6244  1.8214 -1.9201
18177THY    HP344887   5.524   4.523   2.300 -1.5897 -0.4606 -1.0261
18177THY    HP444888   5.471   4.375   2.381 -0.5710  0.0817 -0.3248
18177THY    CP344889   5.317   4.403   2.158 -0.6474  0.0468  0.0865
18177THY    HP544890   5.327   4.296   2.182 -2.9880 -1.6347 -0.5959
18177THY    HP644891   5.385   4.444   2.082 -2.7474 -1.1063  1.5838
18177THY    HP744892   5.216   4.386   2.119  0.4070 -2.4483 -0.9916
18177THY    CA344893   5.365   4.728   2.202 -0.8065  0.5688 -0.3325
18177THY    HA344894   5.469   4.704   2.186 -0.6714  2.4717 -1.1049
18177THY    CA444895   5.335   4.859   2.171 -0.0519 -0.5340  0.0750
18177THY    HA444896   5.418   4.922   2.139 -0.6238 -1.8796  0.1850
18177THY    CA544897   5.206   4.896   2.194  0.6871  0.1257 -0.4468
18177THY    CM144898   5.161   5.036   2.177  1.1608  0.2936  0.1253
18177THY    HM144899   5.085   5.040   2.098  0.4522  1.0173  3.1482
18177THY    HM244900   5.238   5.102   2.137 -1.2774 -1.8007  1.8881
18177THY    HM344901   5.117   5.078   2.268  2.8249  2.6828 -2.9153
18177THY    CA644902   5.105   4.801   2.219 -0.2793 -0.5882 -0.1190
18177THY    HA644903   5.004   4.840   2.233  0.3073 -0.8721  1.5914
18178THY      O44904   0.303   8.198   4.673  0.2457 -0.5159 -0.0870
18178THY     HO44905   0.274   8.147   4.750 -0.6702 -0.1150  0.9875
18178THY    CA144906   0.240   8.317   4.679  0.3977  0.6235  0.2513
18178THY    CA244907   0.198   8.386   4.564  0.0408  0.3294 -0.5906
18178THY    CP144908   0.225   8.326   4.427  0.4612  0.0075  0.0848
18178THY    HP144909   0.287   8.236   4.435  2.0711 -0.4624  1.1060
18178THY    CP244910   0.299   8.429   4.345  0.4107 -0.1296 -0.2700
18178THY    HP244911   0.229   8.494   4.291 -0.1388 -0.2841 -0.9687
18178THY    HP344912   0.371   8.382   4.277  3.1270  1.7487  0.9430
18178THY    HP444913   0.357   8.497   4.407 -0.2181  2.6455 -2.1045
18178THY    CP344914   0.089   8.293   4.361 -0.1068  0.5816 -0.2391
18178THY    HP544915   0.111   8.238   4.268  1.4045 -0.4067  1.8611
18178THY    HP644916   0.029   8.378   4.326 -0.8584  2.4580  0.0341
18178THY    HP744917   0.033   8.234   4.434 -2.1972  0.1658  1.1416
18178THY    CA344918   0.132   8.515   4.577 -0.1829  0.2338 -0.0141
18178THY    HA344919   0.103   8.559   4.483 -2.1888  0.3967 -0.8702
18178THY    CA444920   0.107   8.571   4.698 -0.5718 -0.5190 -0.1782
18178THY    HA444921   0.054   8.666   4.706 -2.6474 -1.2918 -1.2284
18178THY    CA544922   0.154   8.500   4.812  0.0597  0.1436 -0.2808
18178THY    CM144923   0.137   8.564   4.944 -0.5901  0.4105 -0.3046
18178THY    HM144924   0.181   8.506   5.025 -0.4114  1.4297  1.2086
18178THY    HM244925   0.032   8.553   4.974 -0.8078  0.5573  1.7727
18178THY    HM344926   0.160   8.671   4.948  0.1308 -1.1229 -0.3641
18178THY    CA644927   0.205   8.368   4.800  0.3594  0.0015  0.2604
18178THY    HA644928   0.243   8.318   4.888  0.5776  0.1104  0.6098
18179THY      O44929   7.986   3.128   2.167 -0.1953 -0.1220 -0.2191
18179THY     HO44930   8.015   3.211   2.124  0.9763  0.4734 -0.3165
18179THY    CA144931   8.009   3.036   2.078  0.6620  0.2523 -0.1668
18179THY    CA244932   7.945   2.903   2.085  0.5577  0.4529  0.0956
18179THY    CP144933   7.854   2.868   2.199  0.1028  0.1762  0.2954
18179THY    HP144934   7.848   2.958   2.262 -1.6213  0.8000 -0.2119
18179THY    CP244935   7.918   2.750   2.274  0.3213 -0.0858  0.0545
18179THY    HP244936   7.893   2.654   2.227 -0.0740 -2.5039  1.2699
18179THY    HP344937   7.869   2.743   2.372 -0.4309 -0.4297  0.3355
18179THY    HP444938   8.026   2.763   2.280  0.1994 -0.7329  1.5632
18179THY    CP344939   7.706   2.833   2.153 -0.0706  0.1188 -0.3488
18179THY    HP544940   7.701   2.724   2.149 -1.7060  2.2114 -0.4238
18179THY    HP644941   7.676   2.871   2.055 -0.7119 -0.0778 -1.3288
18179THY    HP744942   7.636   2.878   2.224  0.8330  0.8666 -0.0892
18179THY    CA344943   7.960   2.813   1.976  0.0253 -0.8998 -0.3733
18179THY    HA344944   7.911   2.717   1.964  2.1000 -3.8375 -1.1925
18179THY    CA444945   8.043   2.846   1.873  0.0822 -0.4946 -0.1347
18179THY    HA444946   8.065   2.782   1.789  0.7860  0.5445 -1.3046
18179THY    CA544947   8.105   2.977   1.870  0.7394 -0.0790  0.2107
18179THY    CM144948   8.188   3.016   1.747  1.0598  0.2627 -0.8583
18179THY    HM144949   8.276   3.079   1.766  1.1113  0.3733 -0.9659
18179THY    HM244950   8.124   3.073   1.678  1.5073  1.5415  1.3044
18179THY    HM344951   8.226   2.926   1.698  0.9497 -0.2649 -0.6257
18179THY    CA644952   8.080   3.072   1.967 -0.8465  0.5744 -0.3151
18179THY    HA644953   8.124   3.171   1.962  0.1918  1.2582 -0.7231
18180THY      O44954   6.436   5.438   6.484 -0.7416  0.1932  0.7584
18180THY     HO44955   6.519   5.429   6.533  1.5345 -3.4163 -0.2062
18180THY    CA144956   6.372   5.553   6.523  0.8565 -0.1110 -0.1858
18180THY    CA244957   6.254   5.591   6.462 -0.0854  0.1767 -0.8760
18180THY    CP144958   6.188   5.498   6.353 -0.1703 -0.4651 -0.5271
18180THY    HP144959   6.256   5.423   6.312  1.4376  2.0120 -0.5326
18180THY    CP244960   6.118   5.561   6.226 -0.0383  0.2567 -0.0172
18180THY    HP244961   6.181   5.625   6.164 -2.4566 -2.0857  0.2603
18180THY    HP344962   6.027   5.620   6.243  0.3738 -1.4177  1.1707
18180THY    HP444963   6.105   5.473   6.164  3.1264 -2.5718  1.2966
18180THY    CP344964   6.092   5.397   6.427  0.3355  0.2853 -0.0362
18180THY    HP544965   6.059   5.320   6.356 -2.4800  0.7151  0.6436
18180THY    HP644966   5.999   5.441   6.465 -0.2405 -0.4616 -0.5880
18180THY    HP744967   6.147   5.352   6.511 -0.2535  1.1900  0.8796
18180THY    CA344968   6.197   5.717   6.495 -0.2443 -0.6867 -0.8268
18180THY    HA344969   6.110   5.752   6.439 -0.8777 -0.6324 -2.2466
18180THY    CA444970   6.257   5.796   6.600 -0.5116 -0.5342 -0.3261
18180THY    HA444971   6.212   5.889   6.632  1.2808  0.1735  0.3431
18180THY    CA544972   6.378   5.762   6.655 -0.6904 -0.2406  1.0617
18180THY    CM144973   6.455   5.850   6.750  0.1085 -0.4035 -0.4133
18180THY    HM144974   6.550   5.888   6.710  1.9568  2.6983 -1.3997
18180THY    HM244975   6.460   5.794   6.845 -0.6135 -0.2975 -0.3102
18180THY    HM344976   6.404   5.939   6.787  0.7758  0.4745 -0.3785
18180THY    CA644977   6.434   5.639   6.615  0.2413 -0.5704  0.1502
18180THY    HA644978   6.528   5.615   6.665 -0.4391  2.2143  2.7657
18181THY      O44979   0.893   5.181   6.301 -0.0421 -0.5813 -0.4113
18181THY     HO44980   0.874   5.229   6.219 -1.6437 -0.0499 -0.0849
18181THY    CA144981   1.021   5.148   6.299 -0.2239  0.2473  0.1018
18181THY    CA244982   1.090   5.093   6.407  0.3025  0.6466  0.5510
18181THY    CP144983   1.009   5.052   6.532  0.1508 -0.2747 -0.1810
18181THY    HP144984   0.953   5.137   6.572  0.3315  1.5008 -0.8503
18181THY    CP244985   1.093   5.015   6.657  0.2695 -0.6130  0.4192
18181THY    HP244986   1.133   4.914   6.642 -1.0190 -2.0712  0.1068
18181THY    HP344987   1.022   5.021   6.740  0.5907  0.0121 -2.7444
18181THY    HP444988   1.174   5.083   6.688  1.2293 -0.6135 -0.6930
18181THY    CP344989   0.921   4.929   6.508 -0.1603 -0.0180  0.0535
18181THY    HP544990   0.980   4.839   6.490  0.5394 -0.0556  0.5165
18181THY    HP644991   0.853   4.943   6.422 -1.6680  1.3604  1.7507
18181THY    HP744992   0.864   4.919   6.601  1.3328  0.9033 -0.2186
18181THY    CA344993   1.230   5.081   6.393 -0.1243  0.3699 -0.3557
18181THY    HA344994   1.288   5.052   6.481 -0.3241  0.9631  0.9264
18181THY    CA444995   1.303   5.109   6.272  0.3274  0.3607  0.0937
18181THY    HA444996   1.409   5.085   6.264  0.3855 -2.9250  0.9901
18181THY    CA544997   1.225   5.151   6.171  0.1373  0.6136 -0.2942
18181THY    CM144998   1.285   5.159   6.025  0.2331  0.0466 -0.1516
18181THY    HM144999   1.279   5.261   5.986  0.2536 -0.0666 -0.1929
18181THY    HM245000   1.221   5.112   5.949 -0.5715 -1.1819  2.6831
18181THY    HM345001   1.387   5.120   6.016 -0.4397 -1.0671 -1.7925
18181THY    CA645002   1.086   5.167   6.182 -0.9627  0.0667 -0.9938
18181THY    HA645003   1.039   5.179   6.085  1.1307 -0.8867  0.0868
18182THY      O45004   0.655   8.915   6.653 -0.4299 -0.7607 -0.0356
18182THY     HO45005   0.562   8.906   6.682  0.2580  1.9650  0.6455
18182THY    CA145006   0.722   8.978   6.752  0.3409  0.3671  0.3843
18182THY    CA245007   0.848   8.931   6.795  0.5525  0.1809  0.2750
18182THY    CP145008   0.914   8.801   6.745  0.0806 -0.6082 -0.1796
18182THY    HP145009   0.864   8.760   6.656  1.7438 -1.0485 -1.3036
18182THY    CP245010   0.895   8.686   6.837  0.4620  0.0467  0.1872
18182THY    HP245011   0.934   8.592   6.797 -0.6429 -0.4083 -0.0978
18182THY    HP345012   0.789   8.672   6.862  0.3247 -0.9767 -0.7909
18182THY    HP445013   0.950   8.712   6.928  0.6075 -0.8557  3.3934
18182THY    CP345014   1.060   8.822   6.707 -0.2616 -0.3550  0.1573
18182THY    HP545015   1.124   8.848   6.792 -2.1991  1.3576 -0.4653
18182THY    HP645016   1.076   8.895   6.626  1.1876 -0.5573 -0.3363
18182THY    HP745017   1.102   8.732   6.659 -0.6052  0.2283 -0.3258
18182THY    CA345018   0.898   8.996   6.906  0.1014 -0.9334 -0.2572
18182THY    HA345019   0.991   8.961   6.951  0.2856 -0.1009  1.2182
18182THY    CA445020   0.846   9.116   6.948  0.3118  0.6988 -0.9833
18182THY    HA445021   0.892   9.180   7.022 -0.8401  0.2413  0.4362
18182THY    CA545022   0.726   9.171   6.893  0.2474  0.0042  0.8254
18182THY    CM145023   0.671   9.309   6.924  0.2488 -0.4836 -0.2785
18182THY    HM145024   0.751   9.361   6.978  2.2459 -1.8558 -1.7758
18182THY    HM245025   0.575   9.299   6.977  0.2426 -0.4160  0.1230
18182THY    HM345026   0.649   9.364   6.832 -2.2622 -0.9965 -1.9503
18182THY    CA645027   0.662   9.093   6.795  0.1228 -0.2391  0.2733
18182THY    HA645028   0.571   9.128   6.748 -0.9239  2.6249  1.7032
18183THY      O45029   2.492   8.368   6.661  0.1661 -0.2089 -0.0975
18183THY     HO45030   2.480   8.272   6.671 -4.6503  0.3960  0.3523
18183THY    CA145031   2.610   8.401   6.722  0.2340  0.0369  0.0793
18183THY    CA245032   2.642   8.540   6.740  0.4744  0.3711 -0.0187
18183THY    CP145033   2.541   8.648   6.697 -0.3638  0.2650  0.7703
18183THY    HP145034   2.476   8.613   6.617 -1.8106  1.0310  1.6396
18183THY    CP245035   2.622   8.764   6.649 -0.5991  0.1816 -0.5988
18183THY    HP245036   2.558   8.834   6.593 -0.2585  1.3729  0.7111
18183THY    HP345037   2.699   8.731   6.578  0.4906  1.1620 -0.1838
18183THY    HP445038   2.680   8.816   6.725 -0.8344  0.2593 -0.4510
18183THY    CP345039   2.444   8.700   6.803 -0.3801  0.3457 -0.0079
18183THY    HP545040   2.503   8.770   6.864 -0.5692 -0.1064  0.5461
18183THY    HP645041   2.403   8.625   6.872  0.0919 -2.8257 -3.4693
18183THY    HP745042   2.364   8.757   6.756  1.3583 -2.4387  0.3003
18183THY    CA345043   2.769   8.570   6.795  0.3294  0.4818 -0.6992
18183THY    HA345044   2.809   8.670   6.814 -1.9229 -0.3720  0.4365
18183THY    CA445045   2.843   8.465   6.858  0.7055  0.0815  0.5788
18183THY    HA445046   2.921   8.492   6.929  1.8166 -0.4074 -1.1333
18183THY    CA545047   2.801   8.327   6.842 -0.0316 -0.2357  0.1552
18183THY    CM145048   2.886   8.213   6.905 -0.1471  0.1917  0.2781
18183THY    HM145049   2.831   8.148   6.974 -0.1232 -1.3661 -1.4879
18183THY    HM245050   2.974   8.248   6.960  0.2606  0.4671 -1.1274
18183THY    HM345051   2.923   8.153   6.820  0.2008  0.0138  0.7401
18183THY    CA645052   2.690   8.295   6.770  0.4490 -0.1232 -0.1477
18183THY    HA645053   2.664   8.191   6.751 -0.1475  1.2637 -0.2767
18184THY      O45054   7.057   7.711   5.915 -0.2017 -0.1225 -0.3128
18184THY     HO45055   7.072   7.643   5.847  2.4211 -0.3629  0.4158
18184THY    CA145056   7.036   7.646   6.032  0.8286  0.2368  0.0908
18184THY    CA245057   7.102   7.682   6.146 -0.2371 -0.1508  0.0776
18184THY    CP145058   7.203   7.795   6.139 -0.0805 -0.4687  0.1177
18184THY    HP145059   7.224   7.834   6.038 -0.8273 -0.2414  1.1350
18184THY    CP245060   7.340   7.759   6.181 -0.1200  0.2535  0.0364
18184THY    HP245061   7.420   7.831   6.160  0.5948  0.8286 -0.5736
18184THY    HP345062   7.371   7.676   6.115  0.4331 -1.3302  1.4533
18184THY    HP445063   7.350   7.726   6.285  1.0658  0.2554  0.3378
18184THY    CP345064   7.160   7.919   6.217 -0.5232 -0.0213 -0.1641
18184THY    HP545065   7.224   8.007   6.203  0.4174 -1.0328 -0.9750
18184THY    HP645066   7.165   7.883   6.321  0.9606  0.7553  2.0473
18184THY    HP745067   7.058   7.948   6.190 -0.6571 -3.4664 -3.1242
18184THY    CA345068   7.101   7.591   6.256  0.6663 -0.1906 -0.2416
18184THY    HA345069   7.167   7.614   6.339  0.0942  1.2182 -3.2066
18184THY    CA445070   7.019   7.472   6.252  0.6326  0.4026 -0.5447
18184THY    HA445071   7.008   7.399   6.331  0.3109 -0.0828 -1.0263
18184THY    CA545072   6.952   7.440   6.132  0.2058 -0.4285  0.4351
18184THY    CM145073   6.898   7.302   6.115  0.2226  0.1104 -0.6328
18184THY    HM145074   6.900   7.257   6.015 -1.4566  0.8040 -2.4124
18184THY    HM245075   6.798   7.299   6.161 -1.5992 -3.4296  0.2397
18184THY    HM345076   6.962   7.227   6.164  0.9972 -2.3316 -1.6636
18184THY    CA645077   6.968   7.523   6.020  0.1393 -0.0599  0.2106
18184THY    HA645078   6.927   7.488   5.926  0.2300  0.0938 -0.3143
18185THY      O45079   4.439   8.489   6.822  0.8851 -0.2567 -0.6611
18185THY     HO45080   4.408   8.573   6.785 -0.9095  1.4991 -0.4871
18185THY    CA145081   4.396   8.396   6.725  0.0112 -0.7973 -0.3628
18185THY    CA245082   4.391   8.256   6.758 -0.6220 -0.2353 -0.6867
18185THY    CP145083   4.457   8.214   6.892  0.2076  0.9725  0.1361
18185THY    HP145084   4.464   8.302   6.958  1.3207  0.1130  0.7094
18185THY    CP245085   4.598   8.171   6.867 -0.0338 -0.2970 -0.3008
18185THY    HP245086   4.598   8.071   6.823  1.8819  0.1483 -0.5331
18185THY    HP345087   4.653   8.173   6.962 -0.2511 -0.1797  0.5924
18185THY    HP445088   4.640   8.240   6.794  0.6272 -1.1069 -1.5218
18185THY    CP345089   4.371   8.111   6.965  0.0583  0.6290  0.0894
18185THY    HP545090   4.389   8.008   6.933  2.2926 -0.8842  0.8757
18185THY    HP645091   4.265   8.138   6.959  0.3454 -2.5658  0.9467
18185THY    HP745092   4.390   8.127   7.072  0.6976  0.5522 -0.1041
18185THY    CA345093   4.332   8.165   6.671  0.4193 -0.4786  0.0753
18185THY    HA345094   4.330   8.059   6.694  0.5964 -0.2978  0.1087
18185THY    CA445095   4.275   8.217   6.556 -0.1354  0.1247 -0.9625
18185THY    HA445096   4.221   8.146   6.495  1.7816  1.3453 -3.6597
18185THY    CA545097   4.278   8.351   6.520  0.0618 -0.1232  0.1370
18185THY    CM145098   4.199   8.405   6.396  0.3456 -0.6574  0.7317
18185THY    HM145099   4.268   8.467   6.339  1.5121 -1.5124 -1.2528
18185THY    HM245100   4.118   8.474   6.424 -1.3642 -1.0868 -1.0229
18185THY    HM345101   4.160   8.318   6.342  0.0437  1.4936 -0.5418
18185THY    CA645102   4.341   8.441   6.608 -0.1836 -0.3122 -0.5849
18185THY    HA645103   4.338   8.547   6.584  4.5805  0.9408  0.0532
18186THY      O45104   1.897   7.317   3.201  1.0867 -0.8177  0.5903
18186THY     HO45105   1.933   7.244   3.254  2.4780 -0.2626  1.6322
18186THY    CA145106   1.973   7.343   3.094  0.3529  0.4807  0.0837
18186THY    CA245107   1.974   7.463   3.023 -0.3386 -0.4212  0.1690
18186THY    CP145108   1.916   7.592   3.087 -0.1179  0.2144  0.9307
18186THY    HP145109   1.892   7.581   3.193 -0.8978 -0.0624 -0.2228
18186THY    CP245110   1.778   7.623   3.018 -0.0345 -0.9257 -1.0166
18186THY    HP245111   1.733   7.711   3.064 -1.7654 -0.2456 -2.2004
18186THY    HP345112   1.713   7.536   3.033 -0.5923 -0.0207 -0.4541
18186THY    HP445113   1.782   7.637   2.909 -1.0058 -0.9114 -0.5438
18186THY    CP345114   2.009   7.720   3.081 -1.0291  0.1463  0.1067
18186THY    HP545115   1.969   7.810   3.128 -0.4912 -0.7142  0.8165
18186THY    HP645116   2.042   7.749   2.980  2.7597  1.3677  0.4897
18186THY    HP745117   2.101   7.705   3.138  0.1952 -1.3431  1.5795
18186THY    CA345118   2.050   7.473   2.905  0.1165 -0.0099 -0.1290
18186THY    HA345119   2.059   7.569   2.855 -0.6626  0.2887  0.1082
18186THY    CA445120   2.110   7.365   2.857  0.4220  0.1418  0.2914
18186THY    HA445121   2.170   7.362   2.767  0.2186  0.0219 -1.4188
18186THY    CA545122   2.101   7.247   2.923  0.9585  0.1582  0.3907
18186THY    CM145123   2.170   7.124   2.869 -0.4067  0.3058 -0.4349
18186THY    HM145124   2.202   7.064   2.955 -2.4011  1.8303  0.5637
18186THY    HM245125   2.259   7.157   2.813 -0.0286  1.5806  0.8280
18186THY    HM345126   2.103   7.062   2.808 -0.1373  1.1045 -1.5492
18186THY    CA645127   2.037   7.233   3.041  0.4991 -0.3637  0.8713
18186THY    HA645128   2.030   7.136   3.090 -0.1857 -0.7439  0.7198
18187THY      O45129   3.803   6.337   3.870 -0.1464 -0.3164 -1.0416
18187THY     HO45130   3.863   6.297   3.805  1.9483  1.2021 -0.5071
18187THY    CA145131   3.876   6.444   3.924 -0.4284 -0.2334  0.1606
18187THY    CA245132   3.813   6.535   4.013  0.0932  0.0895  0.3797
18187THY    CP145133   3.669   6.510   4.070  0.0955 -0.3440  0.7788
18187THY    HP145134   3.635   6.410   4.044 -1.7691 -2.0624  1.7838
18187THY    CP245135   3.579   6.611   4.004 -0.4362 -0.2535 -0.6686
18187THY    HP245136   3.580   6.591   3.896  0.8869  0.0025 -2.2073
18187THY    HP345137   3.615   6.714   4.017  0.0631 -0.3152 -0.8359
18187THY    HP445138   3.476   6.609   4.041 -0.8863 -1.3273  0.6205
18187THY    CP345139   3.648   6.521   4.224  0.0870 -0.0043 -0.2436
18187THY    HP545140   3.543   6.497   4.242  0.5375 -0.4547 -2.8478
18187THY    HP645141   3.685   6.620   4.253  0.0647  1.6593 -0.6937
18187THY    HP745142   3.709   6.450   4.281 -1.2733 -1.3800 -2.6453
18187THY    CA345143   3.890   6.642   4.057  0.3707  0.8267  0.1727
18187THY    HA345144   3.848   6.716   4.124 -0.6985  1.3433 -0.8551
18187THY    CA445145   4.026   6.661   4.023 -0.3016  0.2832  1.2138
18187THY    HA445146   4.088   6.738   4.066  1.5549 -1.0349  0.5384
18187THY    CA545147   4.078   6.573   3.921 -0.7844  1.4839  0.9848
18187THY    CM145148   4.217   6.593   3.874 -0.3824 -0.0723 -0.3848
18187THY    HM145149   4.203   6.659   3.788  0.1700 -1.7297 -2.3190
18187THY    HM245150   4.256   6.496   3.842 -1.6362 -2.3798 -0.2035
18187THY    HM345151   4.273   6.638   3.956  0.7828 -2.4695  2.9065
18187THY    CA645152   4.002   6.475   3.868  0.7018  0.2138  0.1421
18187THY    HA645153   4.040   6.399   3.801 -2.1496 -0.1585 -1.0809
18188THY      O45154   2.396   4.160   3.001 -0.0017 -0.5621 -0.4631
18188THY     HO45155   2.457   4.234   3.021  0.7838  0.1627 -1.2793
18188THY    CA145156   2.467   4.046   3.033 -0.1160  0.2026 -0.4866
18188THY    CA245157   2.417   3.918   3.019  0.0803 -0.4791  0.1283
18188THY    CP145158   2.280   3.897   2.969  0.5263 -0.3565  0.7791
18188THY    HP145159   2.231   3.992   2.944  2.4450  0.9824  2.2086
18188THY    CP245160   2.195   3.828   3.075  0.2592  0.4662  0.1643
18188THY    HP245161   2.208   3.721   3.054 -1.2709  2.6195 -0.5323
18188THY    HP345162   2.089   3.852   3.062  0.4617 -0.0655  0.7897
18188THY    HP445163   2.228   3.860   3.175 -0.6032  1.1122 -0.8852
18188THY    CP345164   2.279   3.819   2.836 -0.2273  0.1929 -0.1156
18188THY    HP545165   2.203   3.867   2.772  0.9190  0.3145  1.9368
18188THY    HP645166   2.251   3.714   2.852 -0.4743 -0.8527 -0.2269
18188THY    HP745167   2.373   3.829   2.780  0.7862  1.3593 -2.3580
18188THY    CA345168   2.507   3.812   3.049  0.6418  0.3273  0.1892
18188THY    HA345169   2.470   3.710   3.042  0.8308 -0.3582  0.1586
18188THY    CA445170   2.637   3.843   3.094 -0.6406 -0.6504 -0.5477
18188THY    HA445171   2.715   3.775   3.127 -0.0915 -1.0232 -0.1181
18188THY    CA545172   2.681   3.977   3.102  0.4415 -0.3095  0.2589
18188THY    CM145173   2.822   4.017   3.141  0.0094  0.1516 -0.1639
18188THY    HM145174   2.888   4.027   3.054 -0.7634 -0.9519 -3.4006
18188THY    HM245175   2.865   3.935   3.200  0.8616 -1.0327 -0.6006
18188THY    HM345176   2.821   4.108   3.202 -0.0395  0.6092 -0.4658
18188THY    CA645177   2.597   4.075   3.064 -0.2016 -0.2281 -0.4070
18188THY    HA645178   2.633   4.177   3.063 -3.0544 -0.1650  0.6839
18189THY      O45179   3.600   1.765   3.671  0.4301 -0.3469  0.1203
18189THY     HO45180   3.549   1.838   3.711  0.7789 -0.9345  0.6972
18189THY    CA145181   3.634   1.799   3.546 -0.2104 -0.3644  0.2106
18189THY    CA245182   3.703   1.705   3.464  0.0685  0.3939 -0.0962
18189THY    CP145183   3.738   1.566   3.500 -0.0201  0.2453  0.5337
18189THY    HP145184   3.700   1.528   3.596  1.1495 -0.4288 -2.6310
18189THY    CP245185   3.892   1.552   3.500 -0.0184 -0.0474  0.1508
18189THY    HP245186   3.929   1.589   3.404 -1.8639 -0.8800 -0.0602
18189THY    HP345187   3.915   1.445   3.516 -1.1800  1.3122  0.0788
18189THY    HP445188   3.942   1.609   3.579  1.2552 -0.7139  0.0010
18189THY    CP345189   3.674   1.465   3.406  0.5898  0.4414 -0.8046
18189THY    HP545190   3.675   1.363   3.446  1.8837 -0.9742 -1.3816
18189THY    HP645191   3.722   1.451   3.309 -0.2409  0.1336 -1.5468
18189THY    HP745192   3.570   1.488   3.384  1.0301 -0.9981 -0.0818
18189THY    CA345193   3.722   1.745   3.328 -0.7716 -0.1982 -0.6871
18189THY    HA345194   3.777   1.678   3.262  0.5794  0.7071 -0.5084
18189THY    CA445195   3.674   1.862   3.276 -0.6348 -0.9145  0.1220
18189THY    HA445196   3.698   1.897   3.176  0.9780 -0.7839 -0.5024
18189THY    CA545197   3.608   1.951   3.358 -0.4966 -0.4448 -0.4793
18189THY    CM145198   3.561   2.076   3.304 -0.4654 -0.0182 -0.0401
18189THY    HM145199   3.482   2.054   3.231 -0.4559  0.4244 -1.6188
18189THY    HM245200   3.639   2.127   3.246  0.2305  0.7889 -0.1714
18189THY    HM345201   3.515   2.144   3.376  2.0328  0.5444  1.1810
18189THY    CA645202   3.590   1.922   3.494 -0.1369 -0.1078 -0.2819
18189THY    HA645203   3.538   1.994   3.556 -0.3532 -0.2857 -0.2847
18190THY      O45204   1.076   7.919   3.004 -0.0062 -0.1583  0.2005
18190THY     HO45205   1.006   7.860   3.038  2.6533  3.3961 -1.2929
18190THY    CA145206   1.157   7.944   3.106  0.2201 -0.4450  0.4353
18190THY    CA245207   1.298   7.938   3.100 -0.0110 -0.9271 -0.2301
18190THY    CP145208   1.368   7.895   2.971  0.2436  0.3791  0.0578
18190THY    HP145209   1.290   7.897   2.893  0.2665  0.3265 -0.7875
18190THY    CP245210   1.430   7.748   2.978 -0.3277  0.3625 -0.2792
18190THY    HP245211   1.339   7.690   2.998 -2.0938  1.3297  2.6165
18190THY    HP345212   1.509   7.729   3.051 -0.2975  0.3137 -0.3417
18190THY    HP445213   1.485   7.724   2.886 -0.3681 -0.0289  1.0609
18190THY    CP345214   1.480   7.996   2.935  0.1392  0.2369  0.3293
18190THY    HP545215   1.566   8.003   3.002 -0.5998  1.0333  2.5789
18190THY    HP645216   1.443   8.099   2.931 -0.8689 -0.5694 -0.0476
18190THY    HP745217   1.519   7.970   2.835  0.6884  0.9454 -1.7313
18190THY    CA345218   1.364   7.972   3.219 -0.1948 -0.3132 -0.6501
18190THY    HA345219   1.472   7.961   3.229  0.1166  0.5561  2.3729
18190THY    CA445220   1.293   8.020   3.338 -1.0657  0.7176 -0.5435
18190THY    HA445221   1.356   8.047   3.422  1.5258 -1.4549  0.5814
18190THY    CA545222   1.157   8.020   3.339  0.3318  0.3095 -0.3509
18190THY    CM145223   1.079   8.064   3.460 -0.5897  0.3522 -0.5006
18190THY    HM145224   1.095   7.997   3.545 -1.1476  0.8074 -0.0642
18190THY    HM245225   0.972   8.065   3.436 -0.4284 -0.4331  0.7200
18190THY    HM345226   1.118   8.163   3.487  0.0624 -2.6452  0.1699
18190THY    CA645227   1.090   7.989   3.224  0.0794  0.2834  0.1212
18190THY    HA645228   0.982   7.990   3.229  0.0498 -0.0044 -0.5775
18191THY      O45229   6.924   2.744   2.646 -0.4284 -0.3018 -0.1565
18191THY     HO45230   7.001   2.789   2.607 -1.1156 -1.5100  0.0073
18191THY    CA145231   6.946   2.606   2.670  0.2250  0.1019 -0.0853
18191THY    CA245232   6.831   2.519   2.681  0.7995 -0.6000 -0.0564
18191THY    CP145233   6.688   2.578   2.655  0.5132 -0.1932 -0.1517
18191THY    HP145234   6.684   2.670   2.715  1.9321 -0.0287 -0.1708
18191THY    CP245235   6.572   2.485   2.713 -0.1921  0.4176  0.2145
18191THY    HP245236   6.481   2.545   2.703  0.0235  0.0285  0.4774
18191THY    HP345237   6.582   2.461   2.820 -0.9200 -0.0221 -2.3314
18191THY    HP445238   6.561   2.391   2.658 -1.5304  0.6985  0.1813
18191THY    CP345239   6.681   2.606   2.500 -0.3704 -0.2280  1.0225
18191THY    HP545240   6.587   2.654   2.468 -0.0450  1.3845  2.8860
18191THY    HP645241   6.680   2.509   2.451 -2.0036  0.1482  0.8175
18191THY    HP745242   6.765   2.671   2.472  0.0632 -0.1165  0.5169
18191THY    CA345243   6.859   2.381   2.709 -0.4718  0.2711  0.5065
18191THY    HA345244   6.772   2.317   2.718 -0.8994  0.5834  1.1251
18191THY    CA445245   6.996   2.333   2.713  0.2079 -0.1193  0.1018
18191THY    HA445246   7.025   2.228   2.715 -1.6261  0.8126 -0.4114
18191THY    CA545247   7.100   2.426   2.711 -0.0112  1.4096 -0.2203
18191THY    CM145248   7.242   2.373   2.726  0.1888  0.0636 -0.0562
18191THY    HM145249   7.267   2.302   2.647 -0.3919 -1.2996  1.2019
18191THY    HM245250   7.265   2.328   2.824 -0.8265 -0.7035 -2.3584
18191THY    HM345251   7.314   2.454   2.708 -0.1212 -2.3669 -0.2404
18191THY    CA645252   7.081   2.564   2.688 -0.1497 -0.0477 -1.0489
18191THY    HA645253   7.158   2.639   2.681 -2.6450 -3.8627  1.5542
18192THY      O45254   7.252   7.336   6.474  0.0245  0.2584 -0.1305
18192THY     HO45255   7.279   7.408   6.533 -2.2418  0.7832  0.3581
18192THY    CA145256   7.341   7.228   6.479  0.2762  0.1485  0.2706
18192THY    CA245257   7.310   7.104   6.436 -0.3167 -0.1210 -0.2258
18192THY    CP145258   7.162   7.087   6.388 -0.1151  0.2818 -0.2444
18192THY    HP145259   7.122   7.174   6.334 -1.5781 -1.8706 -2.1365
18192THY    CP245260   7.053   7.074   6.497 -0.0886 -0.1814 -0.2772
18192THY    HP245261   7.036   7.167   6.553 -1.6822 -0.6132 -0.2708
18192THY    HP345262   7.078   6.996   6.570 -1.0744  1.2582  0.7160
18192THY    HP445263   6.952   7.058   6.456 -0.7007  1.4192 -0.6721
18192THY    CP345264   7.139   6.966   6.291 -0.0969 -0.1854 -0.4733
18192THY    HP545265   7.179   6.871   6.330  0.6108 -0.3490 -0.2516
18192THY    HP645266   7.203   6.971   6.203  0.3255  0.1684  0.5368
18192THY    HP745267   7.032   6.960   6.270 -0.6513  2.1431  0.1228
18192THY    CA345268   7.402   7.000   6.449  0.2190 -0.1485  0.5562
18192THY    HA345269   7.388   6.895   6.424  0.9325 -1.4936  0.7678
18192THY    CA445270   7.524   7.026   6.506 -0.1615 -0.7526  0.3583
18192THY    HA445271   7.588   6.942   6.527  0.2802 -1.2721  0.5612
18192THY    CA545272   7.560   7.152   6.544  0.1605  0.7215  0.1032
18192THY    CM145273   7.693   7.167   6.614  0.2795  0.0260  0.2064
18192THY    HM145274   7.701   7.092   6.694 -0.6418  2.4580  2.4954
18192THY    HM245275   7.701   7.266   6.663  2.6402 -1.5360  0.8676
18192THY    HM345276   7.773   7.164   6.540  1.3629  1.1242  1.0971
18192THY    CA645277   7.469   7.255   6.533 -0.4899  0.2286 -0.3685
18192THY    HA645278   7.491   7.345   6.590 -1.2040  0.1978 -0.1629
18193THY      O45279   1.491   2.929   4.207 -0.3758  0.8907 -0.1238
18193THY     HO45280   1.446   2.975   4.134  0.0277 -0.9941 -2.5194
18193THY    CA145281   1.512   3.014   4.304  0.1424  0.6129  0.5642
18193THY    CA245282   1.565   2.970   4.428  0.6980  0.2165  0.5396
18193THY    CP145283   1.593   2.823   4.449  0.5161  0.1138 -0.6512
18193THY    HP145284   1.543   2.759   4.375 -1.1278  1.2175 -0.7013
18193THY    CP245285   1.536   2.777   4.580  0.2754  0.0464  0.4820
18193THY    HP245286   1.585   2.805   4.674 -0.4886  1.3262 -2.1064
18193THY    HP345287   1.526   2.668   4.591 -1.0737  0.9307  0.6639
18193THY    HP445288   1.439   2.825   4.601  1.0468  2.8946  0.9786
18193THY    CP345289   1.741   2.790   4.448 -0.0498  0.2665  0.0492
18193THY    HP545290   1.779   2.826   4.352 -0.0782  1.0847  2.4529
18193THY    HP645291   1.773   2.685   4.443  0.0982  0.4399  0.0840
18193THY    HP745292   1.798   2.848   4.522  1.7501 -2.2254  1.6631
18193THY    CA345293   1.590   3.063   4.529 -0.3576  0.0580 -0.1891
18193THY    HA345294   1.644   3.035   4.619  0.0916 -0.6210 -1.5758
18193THY    CA445295   1.572   3.200   4.505  0.1716  0.0659  0.7148
18193THY    HA445296   1.597   3.275   4.580  0.9111 -0.3253  0.8693
18193THY    CA545297   1.530   3.241   4.378  0.3952  0.0089  0.1132
18193THY    CM145298   1.481   3.378   4.358  0.0560  0.0107 -0.4207
18193THY    HM145299   1.526   3.410   4.263 -0.2381 -0.4844 -1.4311
18193THY    HM245300   1.503   3.453   4.434  0.3879 -0.5425  0.0497
18193THY    HM345301   1.373   3.380   4.341 -0.0340  0.5941 -0.0821
18193THY    CA645302   1.493   3.147   4.279 -0.3959 -0.7304 -0.3199
18193THY    HA645303   1.463   3.190   4.184  0.9207 -0.7205  0.7183
18194THY      O45304   6.690   8.325   4.184 -1.3033  0.2986  0.1522
18194THY     HO45305   6.677   8.228   4.185  1.7940 -0.1637 -0.3920
18194THY    CA145306   6.824   8.328   4.155 -0.3850 -0.4077  0.5115
18194THY    CA245307   6.887   8.450   4.123  0.3714 -0.2062  0.2191
18194THY    CP145308   6.812   8.586   4.091  0.1536 -0.3909  0.9528
18194THY    HP145309   6.706   8.568   4.114  0.3667  0.0663  0.2340
18194THY    CP245310   6.834   8.620   3.947  0.2136 -0.0143 -0.4303
18194THY    HP245311   6.776   8.555   3.880 -1.1305  0.9727 -0.3008
18194THY    HP345312   6.940   8.611   3.921  0.4126  0.6108  0.0463
18194THY    HP445313   6.793   8.718   3.920 -0.2220  1.5154 -0.1729
18194THY    CP345314   6.861   8.703   4.181 -1.1490  0.1578  0.0508
18194THY    HP545315   6.785   8.781   4.167  0.8476 -0.4320  1.9862
18194THY    HP645316   6.958   8.740   4.148 -1.4859  0.0167  0.8405
18194THY    HP745317   6.867   8.682   4.288  2.5763  0.1783  0.7119
18194THY    CA345318   7.031   8.440   4.115 -1.0064 -0.3364  0.1258
18194THY    HA345319   7.089   8.526   4.082 -0.2257  1.1944  0.2271
18194THY    CA445320   7.102   8.322   4.149 -0.0532 -0.4690  0.4636
18194THY    HA445321   7.210   8.310   4.142 -0.1322 -1.2752  0.1385
18194THY    CA545322   7.027   8.208   4.178  0.1875 -0.3208  0.8449
18194THY    CM145323   7.105   8.083   4.219 -0.1538 -0.0362 -0.1803
18194THY    HM145324   7.123   8.020   4.131 -1.1465 -1.0642  0.9539
18194THY    HM245325   7.053   8.023   4.295 -0.0878  1.3610  1.4535
18194THY    HM345326   7.207   8.111   4.248 -0.0294 -0.1828 -0.4720
18194THY    CA645327   6.891   8.211   4.180  0.1900  0.7523 -0.0996
18194THY    HA645328   6.833   8.122   4.201 -0.1613 -1.5536 -0.4808
18195THY      O45329   4.268   1.176   4.743 -0.1918  0.7302 -0.3941
18195THY     HO45330   4.332   1.180   4.671 -3.6070 -2.6498 -0.5070
18195THY    CA145331   4.187   1.080   4.704 -0.0010  0.5269  0.0129
18195THY    CA245332   4.050   1.077   4.739 -0.3033 -0.5070  0.0098
18195THY    CP145333   3.992   1.179   4.832  0.4191 -0.9048 -0.0442
18195THY    HP145334   4.061   1.262   4.852 -1.1998 -0.1798  1.1810
18195THY    CP245335   3.956   1.108   4.963  0.0390  0.0791 -0.5894
18195THY    HP245336   4.026   1.029   4.992  1.0674 -0.1286  0.2211
18195THY    HP345337   3.864   1.052   4.948  0.3299 -0.2646 -0.9828
18195THY    HP445338   3.947   1.185   5.041  0.2195 -0.4240 -0.0549
18195THY    CP345339   3.866   1.249   4.770  0.6210  0.0309 -0.0151
18195THY    HP545340   3.897   1.287   4.671  2.7341  1.2285  1.6102
18195THY    HP645341   3.845   1.336   4.834 -0.2446  0.7772 -0.7552
18195THY    HP745342   3.778   1.184   4.763 -0.3796 -0.0683  1.2851
18195THY    CA345343   3.978   0.967   4.694 -0.2408 -0.0753 -0.0836
18195THY    HA345344   3.876   0.959   4.731 -0.2874  0.1229  1.2544
18195THY    CA445345   4.041   0.875   4.611 -0.3013 -0.1905  0.4776
18195THY    HA445346   3.973   0.801   4.571 -2.3813 -0.2669  2.3165
18195THY    CA545347   4.176   0.880   4.574  0.0466 -0.8222 -0.3660
18195THY    CM145348   4.230   0.782   4.482  0.6936  0.0133  0.7016
18195THY    HM145349   4.257   0.690   4.535 -0.6305  0.0879  0.3365
18195THY    HM245350   4.319   0.824   4.433  1.0455 -0.7838 -0.8866
18195THY    HM345351   4.167   0.757   4.396 -0.2175  1.0353 -0.6794
18195THY    CA645352   4.258   0.976   4.631  0.1221 -0.4700 -0.0262
18195THY    HA645353   4.366   0.977   4.619  0.0744 -0.9037 -0.1995
18196THY      O45354   1.609   5.571   6.498  0.0096  0.1993 -0.1207
18196THY     HO45355   1.600   5.572   6.594 -1.0150  0.1134  0.9917
18196THY    CA145356   1.493   5.522   6.444  0.1620 -0.1139 -0.8769
18196THY    CA245357   1.478   5.502   6.303  0.5890  0.1201 -0.1383
18196THY    CP145358   1.578   5.554   6.199  0.1937 -0.4971  0.8534
18196THY    HP145359   1.678   5.563   6.244 -0.5267  1.2901  0.4321
18196THY    CP245360   1.545   5.692   6.147  0.5568  0.2348  0.3796
18196THY    HP245361   1.445   5.681   6.103  0.1061  1.3160  0.0413
18196THY    HP345362   1.620   5.722   6.073  2.8227  1.0175 -2.8161
18196THY    HP445363   1.541   5.763   6.230 -0.7764  0.6351 -0.1257
18196THY    CP345364   1.605   5.454   6.091 -0.1143  0.5543  0.0954
18196THY    HP545365   1.587   5.349   6.115  0.6546 -0.8017 -0.3844
18196THY    HP645366   1.709   5.464   6.056  0.1744  1.0869 -0.8495
18196THY    HP745367   1.542   5.481   6.005  1.2027 -0.2221  0.8130
18196THY    CA345368   1.349   5.462   6.258 -0.2756 -0.0866  0.2634
18196THY    HA345369   1.315   5.456   6.155 -4.2537  1.1426 -1.7784
18196THY    CA445370   1.244   5.439   6.347  0.6632  0.4689  0.2825
18196THY    HA445371   1.148   5.418   6.301 -0.0187  1.2802  1.4923
18196THY    CA545372   1.263   5.449   6.485  0.9626  0.2177  0.2011
18196THY    CM145373   1.150   5.419   6.578 -0.2772 -0.3116  0.3627
18196THY    HM145374   1.153   5.310   6.587  0.3775 -1.2337  0.2989
18196THY    HM245375   1.049   5.437   6.538 -0.2116 -0.5012  0.2989
18196THY    HM345376   1.149   5.479   6.671  0.7955 -0.9862  1.4726
18196THY    CA645377   1.391   5.493   6.532  0.3290 -0.8414 -0.1606
18196THY    HA645378   1.419   5.506   6.636  0.8564 -1.1328  1.2407
18197THY      O45379   5.325   6.015   6.735  0.2612 -0.3361 -0.4627
18197THY     HO45380   5.326   6.110   6.714  0.6719 -0.2146 -0.4401
18197THY    CA145381   5.194   5.981   6.735 -0.3348  0.1056 -0.7141
18197THY    CA245382   5.132   5.948   6.854 -0.5597 -1.1206 -0.3704
18197THY    CP145383   5.210   5.960   6.987 -0.5738 -0.1922 -0.6581
18197THY    HP145384   5.318   5.951   6.971 -0.0966  1.3992  1.2980
18197THY    CP245385   5.183   5.859   7.092  0.0843 -0.1534  0.0969
18197THY    HP245386   5.080   5.870   7.125  0.0394  0.7014 -2.2805
18197THY    HP345387   5.242   5.882   7.181 -0.2728  0.2257 -0.4367
18197THY    HP445388   5.208   5.756   7.063  0.8142  1.9168 -0.3549
18197THY    CP345389   5.175   6.097   7.044  0.6659 -0.0354  0.9350
18197THY    HP545390   5.241   6.124   7.127 -0.4975  0.3725  2.7360
18197THY    HP645391   5.069   6.083   7.069 -0.1296 -3.3151  0.1834
18197THY    HP745392   5.181   6.178   6.969  0.8420  1.4672  2.3707
18197THY    CA345393   4.999   5.925   6.862  1.2576  0.7081 -0.0542
18197THY    HA345394   4.955   5.910   6.961  2.4749  1.4489  1.0647
18197THY    CA445395   4.921   5.919   6.744 -0.1212 -0.4241  0.5320
18197THY    HA445396   4.815   5.899   6.752 -0.2329  1.0457  1.5376
18197THY    CA545397   4.980   5.949   6.619 -0.8611 -0.2037  0.1250
18197THY    CM145398   4.903   5.950   6.487  0.4058  0.2421  0.3542
18197THY    HM145399   4.960   5.966   6.395 -1.0036 -0.7326  0.0038
18197THY    HM245400   4.820   6.021   6.497  1.2574 -0.7200  1.5260
18197THY    HM345401   4.855   5.853   6.470 -0.4945 -0.9490  0.9752
18197THY    CA645402   5.120   5.976   6.618  0.7867  0.7503 -0.2697
18197THY    HA645403   5.157   5.995   6.518 -0.0366  0.6771  1.0161
18198THY      O45404   6.348   5.914   4.846 -0.9199 -0.3437 -0.0310
18198THY     HO45405   6.417   5.871   4.793  0.7483  0.1666  1.8663
18198THY    CA145406   6.371   6.047   4.831 -0.4661 -0.3364  0.4948
18198THY    CA245407   6.284   6.148   4.869  0.2170 -0.3156 -0.5778
18198THY    CP145408   6.155   6.101   4.928  0.1234 -0.1769 -0.7295
18198THY    HP145409   6.132   6.000   4.892  1.0278 -0.8584 -0.7129
18198THY    CP245410   6.037   6.190   4.886  0.6112 -0.4809  0.0944
18198THY    HP245411   6.031   6.284   4.941  0.2400 -0.1480 -0.1217
18198THY    HP345412   5.943   6.137   4.903  0.4227  1.4667  0.9615
18198THY    HP445413   6.041   6.208   4.778  1.5827 -0.4972 -0.1409
18198THY    CP345414   6.171   6.095   5.084  0.1976  0.0091  1.0235
18198THY    HP545415   6.236   6.008   5.098 -3.1705 -3.1725 -2.4342
18198THY    HP645416   6.084   6.066   5.145  0.3995 -0.1928 -0.0603
18198THY    HP745417   6.213   6.190   5.117  0.3603 -0.7707  1.2341
18198THY    CA345418   6.319   6.282   4.854  0.1904 -0.4982 -0.3256
18198THY    HA345419   6.255   6.362   4.891  0.6021 -0.6181  0.0649
18198THY    CA445420   6.447   6.319   4.818  0.4690  0.6678 -0.0575
18198THY    HA445421   6.488   6.419   4.808  1.9478  2.0394 -0.4755
18198THY    CA545422   6.531   6.220   4.770 -0.2162 -0.5437  0.3580
18198THY    CM145423   6.671   6.266   4.733 -0.0002  0.2786  0.3359
18198THY    HM145424   6.699   6.355   4.790  0.8654 -1.1311  0.9872
18198THY    HM245425   6.687   6.300   4.630 -0.9077 -0.1328 -0.4235
18198THY    HM345426   6.741   6.183   4.743 -1.5576 -1.9269 -1.3653
18198THY    CA645427   6.497   6.084   4.784  0.3722 -0.2161 -0.2681
18198THY    HA645428   6.575   6.011   4.764 -0.3810 -0.0708 -1.1294
18199THY      O45429   4.169   6.129   7.874  0.0147 -0.2501 -0.3436
18199THY     HO45430   4.080   6.155   7.846 -0.3504  1.2033  0.0760
18199THY    CA145431   4.246   6.101   7.769 -0.0480  0.1589  0.4614
18199THY    CA245432   4.357   6.012   7.770 -0.1699 -0.1305 -0.2253
18199THY    CP145433   4.383   5.940   7.910  1.1197  0.9663 -0.7067
18199THY    HP145434   4.320   5.990   7.985 -0.9327 -2.0023  1.4708
18199THY    CP245435   4.534   5.957   7.944  0.4252  0.0475 -0.3876
18199THY    HP245436   4.555   5.909   8.040 -3.7891  1.5071  0.2022
18199THY    HP345437   4.556   6.064   7.950  0.1387 -1.7537 -0.2010
18199THY    HP445438   4.584   5.915   7.856  0.9328  0.2788 -0.2713
18199THY    CP345439   4.341   5.795   7.908  0.3806  0.5147  0.5127
18199THY    HP545440   4.426   5.742   7.865 -0.0078  0.8325 -0.3918
18199THY    HP645441   4.243   5.783   7.861 -0.6622  2.6695  0.0336
18199THY    HP745442   4.329   5.749   8.007  0.8951 -0.6123 -2.1654
18199THY    CA345443   4.429   5.993   7.653  0.3204 -0.2461  0.2651
18199THY    HA345444   4.509   5.919   7.647  0.9097 -0.0257  0.8712
18199THY    CA445445   4.382   6.048   7.534 -0.1836 -0.7354 -0.4283
18199THY    HA445446   4.423   6.026   7.436 -0.5865 -1.0733  0.2939
18199THY    CA545447   4.277   6.134   7.530  0.0164 -0.3070  0.3613
18199THY    CM145448   4.225   6.186   7.399  0.3600  0.2521  0.2859
18199THY    HM145449   4.275   6.141   7.312  3.2833  1.4429  1.0003
18199THY    HM245450   4.242   6.294   7.387  1.7984  0.2728  0.0757
18199THY    HM345451   4.117   6.168   7.397  0.4387 -1.4757 -0.1423
18199THY    CA645452   4.210   6.163   7.652 -0.9727  0.1438 -1.0132
18199THY    HA645453   4.131   6.237   7.646  0.1550 -0.1149  0.2159
18200THY      O45454   4.706   1.220   4.766  0.3067  0.2475 -0.7050
18200THY     HO45455   4.671   1.158   4.832 -3.1335 -0.2745  0.4757
18200THY    CA145456   4.763   1.140   4.684  0.2266 -0.1087  0.0365
18200THY    CA245457   4.860   1.177   4.595 -0.9173 -0.7037  0.2068
18200THY    CP145458   4.933   1.307   4.594  0.2454  0.5829 -0.5405
18200THY    HP145459   4.893   1.366   4.677  0.2024 -1.3082  2.3309
18200THY    CP245460   4.913   1.374   4.462  0.3453 -0.2227  1.0105
18200THY    HP245461   4.970   1.467   4.471  1.7530 -0.5660  0.2219
18200THY    HP345462   4.808   1.380   4.433  0.6645 -1.8283 -0.2923
18200THY    HP445463   4.964   1.328   4.376 -0.8327  0.1771 -1.1625
18200THY    CP345464   5.078   1.301   4.635 -0.6057  0.1174  0.0729
18200THY    HP545465   5.098   1.233   4.719  0.7000  1.4718  2.0361
18200THY    HP645466   5.114   1.397   4.673  0.1966  2.4940 -1.0888
18200THY    HP745467   5.141   1.276   4.549  0.3111  1.5530 -3.1734
18200THY    CA345468   4.911   1.079   4.502 -0.1232  0.0660  0.2182
18200THY    HA345469   4.982   1.106   4.425  0.8373  1.2513  1.1775
18200THY    CA445470   4.866   0.947   4.512  0.2503 -0.3573 -0.2226
18200THY    HA445471   4.911   0.870   4.450  1.6138 -3.1840  2.5936
18200THY    CA545472   4.777   0.911   4.604  0.4512  0.3154  0.4222
18200THY    CM145473   4.718   0.772   4.613 -0.1387  0.3526 -0.0882
18200THY    HM145474   4.610   0.777   4.593 -0.2500  0.7843 -0.6228
18200THY    HM245475   4.738   0.726   4.711 -2.0283 -0.0822 -2.0375
18200THY    HM345476   4.754   0.711   4.530 -0.0847  1.5176 -1.7030
18200THY    CA645477   4.722   1.007   4.688 -0.3726  0.1800 -0.1481
18200THY    HA645478   4.629   0.992   4.742 -1.0227 -0.0140  2.5175
18201THY      O45479   4.481   2.059   4.830  0.2556  0.1679 -0.1413
18201THY     HO45480   4.452   1.975   4.870  0.0746  0.2602 -0.0329
18201THY    CA145481   4.593   2.096   4.896  0.4281 -0.4437  0.8711
18201THY    CA245482   4.665   2.202   4.851 -0.1092  0.1207 -0.1433
18201THY    CP145483   4.651   2.264   4.715  0.1715  0.4824 -0.1854
18201THY    HP145484   4.570   2.201   4.676 -1.0096  2.0170  0.3234
18201THY    CP245485   4.780   2.246   4.634 -0.2414 -0.0789  0.0416
18201THY    HP245486   4.769   2.281   4.531  0.5476 -0.3942 -0.6093
18201THY    HP345487   4.807   2.140   4.630  1.4508 -1.1120  0.4683
18201THY    HP445488   4.866   2.299   4.676 -0.9933  0.5904  0.7629
18201THY    CP345489   4.609   2.411   4.712 -0.1510 -0.5493  0.2378
18201THY    HP545490   4.508   2.429   4.751  0.9823  2.2331  1.1978
18201THY    HP645491   4.622   2.446   4.609 -0.3425  0.2136  2.8111
18201THY    HP745492   4.684   2.470   4.766 -0.3403 -0.4350  0.3782
18201THY    CA345493   4.784   2.237   4.928 -0.5121  0.1897  0.5717
18201THY    HA345494   4.867   2.300   4.897  0.1027  0.2752 -0.1746
18201THY    CA445495   4.809   2.169   5.048  1.1208  0.8634  0.3422
18201THY    HA445496   4.895   2.204   5.105  2.4645 -1.9273  1.9281
18201THY    CA545497   4.721   2.083   5.108  0.1616  0.6546 -0.8437
18201THY    CM145498   4.755   2.021   5.247 -0.0556  0.6312  0.0364
18201THY    HM145499   4.691   2.074   5.319 -0.7838 -0.7611  1.1444
18201THY    HM245500   4.860   2.029   5.276  0.2900 -0.3718 -0.6215
18201THY    HM345501   4.726   1.916   5.255 -1.7613  4.5515  0.6104
18201THY    CA645502   4.612   2.045   5.027  0.6522 -0.0873 -0.1751
18201THY    HA645503   4.549   1.967   5.068  0.2371  0.9556  0.6810
18202THY      O45504   1.185   1.246   6.623 -0.2427 -0.3612  0.1392
18202THY     HO45505   1.203   1.325   6.569 -0.8241 -0.5200  0.1749
18202THY    CA145506   1.226   1.275   6.749  0.7921  0.4394  0.1228
18202THY    CA245507   1.292   1.194   6.840  0.4399  0.7356  0.2505
18202THY    CP145508   1.318   1.051   6.784 -0.4565 -0.3055  0.0394
18202THY    HP145509   1.321   1.051   6.675 -1.6305 -0.3516  0.8210
18202THY    CP245510   1.204   0.959   6.841 -1.3289  0.3055  0.2960
18202THY    HP245511   1.200   0.978   6.949  0.1505  0.5144 -0.4101
18202THY    HP345512   1.232   0.853   6.829 -0.1789  0.5440  0.5516
18202THY    HP445513   1.116   0.992   6.784 -0.8543 -0.0977  0.8931
18202THY    CP345514   1.452   0.987   6.837 -0.1091  0.6668 -0.2416
18202THY    HP545515   1.539   1.048   6.809 -0.1769 -1.1527 -0.9106
18202THY    HP645516   1.469   0.886   6.798 -1.1018  0.1794 -0.2325
18202THY    HP745517   1.452   0.986   6.946 -1.1658  0.6747 -0.6180
18202THY    CA345518   1.337   1.244   6.964 -0.3937  0.1735 -0.0472
18202THY    HA345519   1.394   1.187   7.037 -0.0078 -1.6283 -2.0915
18202THY    CA445520   1.303   1.376   7.005  0.3131 -0.3402 -0.0025
18202THY    HA445521   1.334   1.412   7.102 -1.4017  0.2696 -0.0933
18202THY    CA545522   1.233   1.457   6.911  0.0242 -0.3986  0.3798
18202THY    CM145523   1.197   1.595   6.954  0.0830  0.8111 -0.1462
18202THY    HM145524   1.186   1.603   7.063  1.8160  1.0334 -0.4032
18202THY    HM245525   1.117   1.638   6.893  1.4220 -0.3841  0.7280
18202THY    HM345526   1.283   1.656   6.925  0.3883  0.7367 -0.6104
18202THY    CA645527   1.192   1.405   6.786 -0.6391  0.5349 -0.1055
18202THY    HA645528   1.139   1.467   6.714 -0.7371 -0.0602 -0.8686
18203THY      O45529   8.705   4.103   2.273 -0.0640 -1.0256  0.0571
18203THY     HO45530   8.736   4.028   2.326 -1.3315 -0.9904 -0.4671
18203THY    CA145531   8.613   4.169   2.341  0.2350 -0.2766 -0.2950
18203THY    CA245532   8.600   4.308   2.327  0.2757 -0.7594 -0.1653
18203THY    CP145533   8.662   4.398   2.211 -0.0949 -0.3531  0.0793
18203THY    HP145534   8.726   4.336   2.147  0.7082  1.4187 -0.9940
18203THY    CP245535   8.765   4.498   2.273  0.5156  0.3779 -0.7325
18203THY    HP245536   8.716   4.589   2.310  1.2115 -0.8627  0.1700
18203THY    HP345537   8.829   4.535   2.193 -2.4755 -2.0282 -0.3716
18203THY    HP445538   8.818   4.438   2.348 -0.3721  1.2795 -0.4377
18203THY    CP345539   8.551   4.473   2.134 -0.0675  0.0805  0.2597
18203THY    HP545540   8.471   4.403   2.105  0.3613 -1.3046  0.3248
18203THY    HP645541   8.602   4.516   2.047 -0.3951 -0.8964 -1.2211
18203THY    HP745542   8.497   4.547   2.194 -1.4375 -0.5938 -0.1541
18203THY    CA345543   8.521   4.370   2.428  0.4982 -0.6416 -0.3673
18203THY    HA345544   8.506   4.476   2.443  0.7622  0.5627 -0.4903
18203THY    CA445545   8.445   4.288   2.523  0.3818  1.1997 -0.8983
18203THY    HA445546   8.373   4.348   2.578  0.6072 -0.0794  0.6268
18203THY    CA545547   8.450   4.151   2.518  0.7035 -0.2344 -0.0862
18203THY    CM145548   8.373   4.061   2.607 -0.2358 -0.4331  0.0855
18203THY    HM145549   8.360   3.971   2.546  0.6009 -2.0991  1.0440
18203THY    HM245550   8.279   4.104   2.642  0.5350  1.5859  0.2457
18203THY    HM345551   8.422   4.042   2.703 -1.1290 -0.0826 -0.4898
18203THY    CA645552   8.543   4.094   2.436  0.1255  0.3281 -0.5854
18203THY    HA645553   8.553   3.986   2.441 -1.2686  1.6132 -0.6786
18204THY      O45554   6.060   3.787   2.958  0.8831 -0.5125 -0.0384
18204THY     HO45555   6.006   3.810   3.036  2.8537  0.8189  0.4339
18204THY    CA145556   6.118   3.674   3.003 -1.5601 -0.1318 -0.7299
18204THY    CA245557   6.193   3.597   2.915 -0.0068 -0.3686 -0.8034
18204THY    CP145558   6.212   3.634   2.768  0.3539 -0.1958  0.3042
18204THY    HP145559   6.163   3.725   2.732 -0.4019 -0.2993 -0.1357
18204THY    CP245560   6.173   3.510   2.677  0.2218 -0.6308  0.4688
18204THY    HP245561   6.244   3.427   2.674 -1.6134 -0.3266 -1.1822
18204THY    HP345562   6.133   3.531   2.577  0.5928 -0.5556  1.5751
18204THY    HP445563   6.093   3.457   2.730  1.4806 -0.0061 -0.8734
18204THY    CP345564   6.355   3.668   2.742 -0.0505  0.3707 -0.2566
18204THY    HP545565   6.372   3.700   2.638  3.5309  0.8474 -0.1133
18204THY    HP645566   6.407   3.572   2.750 -1.4535 -0.8394 -1.1612
18204THY    HP745567   6.398   3.748   2.803 -0.9065  1.5469 -0.6794
18204THY    CA345568   6.261   3.482   2.963 -0.7246 -0.8180  0.1833
18204THY    HA345569   6.322   3.421   2.898  0.1925 -0.5446  0.7789
18204THY    CA445570   6.254   3.457   3.102 -0.3521 -0.1662 -0.1280
18204THY    HA445571   6.310   3.377   3.149 -0.8899  1.0025  0.1659
18204THY    CA545572   6.177   3.540   3.192 -0.0194  0.6077 -0.0142
18204THY    CM145573   6.177   3.508   3.336  0.1237 -0.3284 -0.3708
18204THY    HM145574   6.119   3.581   3.394 -1.7734 -0.1281 -1.9570
18204THY    HM245575   6.277   3.491   3.376  0.2248 -0.3547  0.1447
18204THY    HM345576   6.117   3.417   3.340 -0.0602  0.0423 -0.2363
18204THY    CA645577   6.113   3.651   3.143 -0.6138 -0.1802  0.0547
18204THY    HA645578   6.061   3.720   3.209  0.3575 -0.7183  1.3419
18205THY      O45579   0.779   4.102   3.120 -0.1061 -0.0620  0.5210
18205THY     HO45580   0.843   4.132   3.185 -0.0675 -0.2555  0.8593
18205THY    CA145581   0.655   4.072   3.166  0.3832 -0.0009 -0.7951
18205THY    CA245582   0.544   4.053   3.077  0.5154  0.1537  0.2597
18205THY    CP145583   0.565   4.073   2.926 -0.3558  0.3445  0.1730
18205THY    HP145584   0.644   4.146   2.903  1.7329  0.5161 -1.9086
18205THY    CP245585   0.433   4.125   2.864  0.1799 -0.2128 -0.4942
18205THY    HP245586   0.452   4.157   2.761  1.8601  0.3558  0.4675
18205THY    HP345587   0.387   4.212   2.913 -1.0646  0.2962 -1.4076
18205THY    HP445588   0.354   4.049   2.858 -0.1655 -0.5471 -0.1090
18205THY    CP345589   0.615   3.940   2.862  0.0929 -0.0089  0.5312
18205THY    HP545590   0.657   3.957   2.761  2.2269  1.0794  2.3280
18205THY    HP645591   0.541   3.860   2.857 -1.1253 -3.3456  1.6994
18205THY    HP745592   0.699   3.901   2.922 -0.4742 -0.6337 -1.8009
18205THY    CA345593   0.422   4.011   3.136 -0.6505 -0.0438  0.0323
18205THY    HA345594   0.341   3.985   3.068 -0.4119 -1.0862  1.8462
18205THY    CA445595   0.411   3.995   3.276  0.4533 -0.2619 -0.0230
18205THY    HA445596   0.317   3.962   3.319  0.3474 -0.9723 -0.6757
18205THY    CA545597   0.518   4.022   3.356 -0.7629 -0.2254 -0.0682
18205THY    CM145598   0.512   4.013   3.514 -0.3083  0.1258 -0.4179
18205THY    HM145599   0.508   4.117   3.548 -1.6962  0.9494 -0.7058
18205THY    HM245600   0.596   3.957   3.558 -0.9688  1.4679 -0.4067
18205THY    HM345601   0.420   3.964   3.547 -1.4561 -0.7210  1.0839
18205THY    CA645602   0.640   4.060   3.301  0.2861 -0.0132  0.5584
18205THY    HA645603   0.729   4.077   3.362 -0.1377  0.7589  0.0534
18206THY      O45604   9.088   2.284   6.477 -0.3771  0.5259 -0.0075
18206THY     HO45605   9.067   2.192   6.454 -3.9197 -2.2159  1.2133
18206THY    CA145606   9.022   2.367   6.392  0.8245 -0.3871  0.2037
18206THY    CA245607   8.994   2.501   6.439  0.3086 -0.1327  0.0499
18206THY    CP145608   9.044   2.543   6.574 -0.0425 -0.1113  0.2755
18206THY    HP145609   9.143   2.504   6.597 -0.5629  1.1253 -0.3781
18206THY    CP245610   8.936   2.488   6.673 -0.2258 -0.7622  0.4257
18206THY    HP245611   8.910   2.383   6.655 -0.7764 -0.0761  0.4392
18206THY    HP345612   8.841   2.542   6.670 -1.3923 -2.3054 -1.5763
18206THY    HP445613   8.983   2.486   6.773 -0.7769 -0.5025 -0.7884
18206THY    CP345614   9.035   2.689   6.601  0.0861 -0.0504 -0.2701
18206THY    HP545615   9.088   2.702   6.696 -1.4219  0.8948 -0.6599
18206THY    HP645616   8.933   2.729   6.613  1.0539 -2.0947  3.1607
18206THY    HP745617   9.079   2.733   6.511 -1.4670 -1.2710 -1.1113
18206THY    CA345618   8.908   2.581   6.363 -0.3419 -0.2154 -1.0597
18206THY    HA345619   8.870   2.677   6.397 -0.5512 -2.5011 -0.2647
18206THY    CA445620   8.877   2.535   6.231  0.1093 -0.5063  0.0493
18206THY    HA445621   8.829   2.605   6.163  2.8651 -2.3503  0.3310
18206THY    CA545622   8.912   2.410   6.184  0.1168 -0.5597 -0.7596
18206THY    CM145623   8.861   2.366   6.054  0.7888  0.2093  0.3980
18206THY    HM145624   8.943   2.339   5.987  0.0456 -1.0747  1.2344
18206THY    HM245625   8.801   2.442   6.004 -0.3291  2.6831  1.2454
18206THY    HM345626   8.799   2.277   6.064  3.1953 -0.8415 -1.5267
18206THY    CA645627   8.973   2.317   6.272 -0.0911  0.4716  0.3850
18206THY    HA645628   8.987   2.218   6.230  1.5428 -0.3156  0.9150
18207THY      O45629   6.889   2.732   3.927 -0.1063  0.3082 -0.0800
18207THY     HO45630   6.946   2.739   3.849  1.9773  1.7644 -0.0357
18207THY    CA145631   6.918   2.838   4.010 -0.6467  0.0489 -0.3185
18207THY    CA245632   6.833   2.867   4.116  0.1760  0.7947  0.7093
18207THY    CP145633   6.717   2.777   4.157  0.1096  0.1676 -0.6335
18207THY    HP145634   6.721   2.686   4.096  0.3783  1.2775 -1.3813
18207THY    CP245635   6.588   2.846   4.115  0.6553 -0.0676  0.3530
18207THY    HP245636   6.610   2.917   4.035  1.9076 -0.7774 -0.7691
18207THY    HP345637   6.543   2.899   4.200 -0.7304  0.6885 -1.8527
18207THY    HP445638   6.524   2.764   4.079 -0.7380 -0.0435  1.4027
18207THY    CP345639   6.708   2.733   4.310 -0.8098  0.7578  0.2344
18207THY    HP545640   6.806   2.690   4.332 -0.2573 -0.6503  0.6935
18207THY    HP645641   6.627   2.659   4.317 -1.1446 -1.5445  0.2947
18207THY    HP745642   6.690   2.823   4.371 -0.3286 -0.8990  1.5196
18207THY    CA345643   6.867   2.978   4.199  0.6222 -0.0987  0.5560
18207THY    HA345644   6.795   3.006   4.276 -0.9908 -0.8133 -1.3509
18207THY    CA445645   6.982   3.053   4.172 -0.9286  0.3435  0.0966
18207THY    HA445646   7.018   3.137   4.230  2.9495 -1.1946 -0.3231
18207THY    CA545647   7.062   3.018   4.060 -0.3159 -0.2689  0.2072
18207THY    CM145648   7.186   3.091   4.025  0.8736 -0.5771  0.0609
18207THY    HM145649   7.195   3.092   3.916 -1.2845 -0.7797  0.6617
18207THY    HM245650   7.273   3.042   4.071  0.1218 -1.4494 -2.2273
18207THY    HM345651   7.176   3.193   4.063  1.1457  1.8704 -0.7512
18207THY    CA645652   7.033   2.910   3.977  0.5169 -0.2308 -1.1539
18207THY    HA645653   7.103   2.882   3.900  0.5011 -0.4038 -0.7288
18208THY      O45654   5.977   1.816   6.733 -0.2004  0.7609 -0.0658
18208THY     HO45655   6.049   1.854   6.679 -0.1627  1.5582  1.0648
18208THY    CA145656   5.860   1.867   6.694  0.6764  0.1110 -0.0700
18208THY    CA245657   5.742   1.859   6.778 -0.3586  0.5521  0.1923
18208THY    CP145658   5.747   1.813   6.927  0.3644  1.3524 -0.4179
18208THY    HP145659   5.853   1.785   6.934  1.0678 -1.9888  0.9717
18208THY    CP245660   5.657   1.685   6.948 -0.1463  0.2367 -0.4219
18208THY    HP245661   5.663   1.653   7.053 -2.2452  0.8538  1.0086
18208THY    HP345662   5.682   1.602   6.881 -2.1152 -1.4734  0.2629
18208THY    HP445663   5.556   1.715   6.917  0.0618 -0.9829 -0.9286
18208THY    CP345664   5.718   1.921   7.029 -1.1631  0.4855  0.4953
18208THY    HP545665   5.757   1.886   7.125  0.3471 -0.5735 -0.9086
18208THY    HP645666   5.611   1.920   7.049 -1.0550  1.0880  0.9197
18208THY    HP745667   5.743   2.021   6.992 -2.9860  2.4596  1.7515
18208THY    CA345668   5.623   1.921   6.728  0.0797  0.8508  0.9477
18208THY    HA345669   5.533   1.932   6.787 -0.4150  0.1709  0.6524
18208THY    CA445670   5.613   1.940   6.588  0.0133 -0.1300  0.3513
18208THY    HA445671   5.520   1.974   6.543  0.8503 -0.7748  1.9055
18208THY    CA545672   5.726   1.931   6.509  0.2951 -1.1526 -0.2290
18208THY    CM145673   5.735   1.959   6.359  0.3156  0.7573 -0.6759
18208THY    HM145674   5.636   1.986   6.320  0.2651  1.6698  0.5297
18208THY    HM245675   5.765   1.866   6.309 -1.1054  0.6763 -1.1138
18208THY    HM345676   5.795   2.046   6.332  0.9296  1.8275 -0.7434
18208THY    CA645677   5.847   1.904   6.565  0.7451 -0.6493  0.3807
18208THY    HA645678   5.930   1.913   6.495  1.3997  0.3897  3.3837
18209THY      O45679   3.662   6.937   4.621 -0.1917 -0.0260  0.4473
18209THY     HO45680   3.688   6.935   4.714  1.1748 -0.3546  1.2508
18209THY    CA145681   3.688   7.063   4.581  0.0539  0.0824  0.4186
18209THY    CA245682   3.669   7.098   4.441  0.3612 -0.4009  0.0391
18209THY    CP145683   3.627   6.995   4.336  0.0219  0.4544  0.5587
18209THY    HP145684   3.619   6.896   4.383  0.4543  0.4417  0.5192
18209THY    CP245685   3.735   6.985   4.224  0.0052  0.4124 -0.7508
18209THY    HP245686   3.837   6.970   4.260  0.4398 -1.2986 -2.2557
18209THY    HP345687   3.740   7.073   4.159 -0.6303  1.0321 -0.2452
18209THY    HP445688   3.718   6.901   4.155  2.3915  1.9909 -2.6877
18209THY    CP345689   3.494   7.025   4.258  0.0661  0.5511  0.4848
18209THY    HP545690   3.401   7.028   4.316 -0.2751  0.0107  2.7681
18209THY    HP645691   3.474   6.951   4.180 -0.1086  1.2882 -0.2485
18209THY    HP745692   3.506   7.121   4.206 -2.1522  1.8326  1.5565
18209THY    CA345693   3.686   7.236   4.412 -0.0742  0.3235 -0.2007
18209THY    HA345694   3.672   7.280   4.313 -0.0682  0.4432  0.0704
18209THY    CA445695   3.724   7.322   4.514  0.5534 -0.4939 -0.2573
18209THY    HA445696   3.726   7.428   4.492 -0.0694 -1.5941 -0.4567
18209THY    CA545697   3.758   7.278   4.645 -0.1339  0.4980 -0.1938
18209THY    CM145698   3.809   7.374   4.743 -0.3465  0.1830 -0.0107
18209THY    HM145699   3.879   7.451   4.710  0.2675 -0.1129 -0.6817
18209THY    HM245700   3.841   7.330   4.838 -1.3236  0.8923  0.7612
18209THY    HM345701   3.725   7.437   4.772  0.3496  2.1062  0.0826
18209THY    CA645702   3.734   7.153   4.679  0.5256 -0.0796 -0.1980
18209THY    HA645703   3.763   7.119   4.778  1.6556 -0.5878 -0.7746
18210THY      O45704   8.875   1.492   3.002  0.0636  0.0262  0.1522
18210THY     HO45705   8.885   1.396   2.995 -1.5595  0.0546 -0.0452
18210THY    CA145706   8.899   1.516   3.132  0.1966  0.1437 -0.0663
18210THY    CA245707   8.862   1.636   3.192 -0.2391 -0.0301 -0.3461
18210THY    CP145708   8.780   1.745   3.120 -0.3174  0.2223 -0.0650
18210THY    HP145709   8.809   1.724   3.016  1.1742  0.1788  1.8961
18210THY    CP245710   8.821   1.892   3.144 -0.3482  0.6570  0.1606
18210THY    HP245711   8.805   1.916   3.250 -2.9227  0.0301  1.6418
18210THY    HP345712   8.752   1.954   3.086  1.4433 -0.6350  1.0257
18210THY    HP445713   8.918   1.918   3.099  0.0371  0.7091 -1.1160
18210THY    CP345714   8.629   1.734   3.136  0.2451  0.3683 -0.7571
18210THY    HP545715   8.606   1.727   3.243 -0.8265  0.5583  3.2235
18210THY    HP645716   8.594   1.643   3.086 -3.7978  1.8059 -0.2191
18210THY    HP745717   8.574   1.820   3.095  1.9547 -0.5806 -0.0692
18210THY    CA345718   8.892   1.655   3.333 -0.0997 -0.1350  0.3903
18210THY    HA345719   8.848   1.744   3.379  2.8005 -2.7207  3.4274
18210THY    CA445720   8.972   1.556   3.400 -0.6837  0.0961  0.2231
18210THY    HA445721   8.996   1.566   3.506 -1.2207  0.3059 -0.5223
18210THY    CA545722   9.005   1.441   3.339  0.0515  0.0447  0.0912
18210THY    CM145723   9.060   1.318   3.407 -0.8432 -0.6397 -0.5620
18210THY    HM145724   8.988   1.236   3.397 -1.0943 -1.3187 -0.2681
18210THY    HM245725   9.075   1.319   3.516  0.8401 -0.7313  3.7248
18210THY    HM345726   9.161   1.306   3.366  0.9921  2.5996  2.0795
18210THY    CA645727   8.969   1.418   3.204  0.1849 -1.1926  0.0302
18210THY    HA645728   9.006   1.328   3.157 -0.4660 -1.1057 -0.2824
18211THY      O45729   5.458   5.146   7.151  0.1598 -0.5714 -0.6183
18211THY     HO45730   5.472   5.175   7.243 -2.9605 -0.2034  0.0510
18211THY    CA145731   5.566   5.084   7.093  0.5358 -0.2365  0.7708
18211THY    CA245732   5.574   5.062   6.953  0.0991  0.6322  0.1388
18211THY    CP145733   5.459   5.092   6.857 -0.4791  0.5584 -0.3534
18211THY    HP145734   5.376   5.142   6.908 -1.5566 -2.2454  0.9272
18211THY    CP245735   5.403   4.970   6.787 -0.0774  0.6752 -0.4077
18211THY    HP245736   5.360   4.897   6.857 -1.3390  1.5914  1.1405
18211THY    HP345737   5.485   4.924   6.730  1.7347  0.6119  2.6470
18211THY    HP445738   5.323   4.994   6.716 -0.1250  0.8149 -0.1455
18211THY    CP345739   5.502   5.199   6.747 -0.1408  0.3887 -0.1920
18211THY    HP545740   5.583   5.157   6.687 -0.3270 -0.7410  0.9979
18211THY    HP645741   5.539   5.288   6.799  1.4397 -0.6852 -0.1912
18211THY    HP745742   5.426   5.231   6.675 -0.3268  1.1291  1.1113
18211THY    CA345743   5.691   4.995   6.911  0.9677  1.5835 -0.3020
18211THY    HA345744   5.700   4.974   6.805  0.3541  1.5834 -0.6076
18211THY    CA445745   5.790   4.947   6.998 -0.0207  0.3792 -0.0545
18211THY    HA445746   5.881   4.897   6.966 -0.9295  2.0568 -3.0604
18211THY    CA545747   5.771   4.975   7.132  0.0659  0.8201  0.5306
18211THY    CM145748   5.880   4.939   7.229 -0.4910  0.2472  0.3138
18211THY    HM145749   5.858   4.844   7.279 -2.8592 -0.5509  0.3706
18211THY    HM245750   5.894   5.021   7.301 -1.2494 -1.1525  1.7245
18211THY    HM345751   5.970   4.924   7.170 -0.6465  0.1446 -0.2423
18211THY    CA645752   5.653   5.034   7.182 -0.4253 -0.3821 -0.1909
18211THY    HA645753   5.638   5.042   7.290 -1.2748 -0.3357 -1.9729
18212THY      O45754   8.857   5.218   4.901 -0.2327 -0.7755 -0.9063
18212THY     HO45755   8.835   5.245   4.991  0.8250 -0.8333  0.1940
18212THY    CA145756   8.741   5.175   4.849  0.1177 -0.1787 -0.5030
18212THY    CA245757   8.719   5.154   4.713  0.6031 -0.4800  0.0700
18212THY    CP145758   8.829   5.169   4.608 -0.4967  0.7586 -0.2684
18212THY    HP145759   8.912   5.219   4.658  0.2121  0.3032 -0.9648
18212THY    CP245760   8.782   5.261   4.489  0.5511  0.1557 -0.3673
18212THY    HP245761   8.864   5.293   4.425  0.3653  0.8444  1.6104
18212THY    HP345762   8.727   5.348   4.526 -1.0662  0.9002 -1.6400
18212THY    HP445763   8.708   5.217   4.421  1.4133 -2.6117  2.1280
18212THY    CP345764   8.874   5.038   4.553 -0.3154  0.1166 -0.8696
18212THY    HP545765   8.955   5.066   4.484 -1.3642 -0.5148  0.7660
18212THY    HP645766   8.792   4.989   4.499 -1.9092  1.0557  0.6471
18212THY    HP745767   8.911   4.969   4.630  0.7891 -0.9665 -1.5388
18212THY    CA345768   8.590   5.102   4.674  0.0365 -0.4436  0.7066
18212THY    HA345769   8.572   5.079   4.569  2.0213 -1.2608  2.4696
18212THY    CA445770   8.494   5.081   4.777  0.3399  0.0359  0.1326
18212THY    HA445771   8.396   5.043   4.750 -0.0763  1.2482  0.2976
18212THY    CA545772   8.520   5.100   4.910 -0.3655 -0.4994 -0.1517
18212THY    CM145773   8.436   5.053   5.021 -0.3605  0.1160 -0.5726
18212THY    HM145774   8.386   5.136   5.073  2.9466  2.6871  0.0347
18212THY    HM245775   8.499   4.999   5.093  1.7684 -3.3474 -3.0741
18212THY    HM345776   8.356   4.988   4.982 -2.8633 -0.1656  2.4177
18212THY    CA645777   8.647   5.147   4.945  0.7659 -0.2981  0.2022
18212THY    HA645778   8.679   5.140   5.049  0.1254 -0.1631 -0.9116
18213THY      O45779   8.353   3.349   4.755 -0.7452  0.3249  0.2702
18213THY     HO45780   8.388   3.364   4.844 -0.6060  0.1309  1.1872
18213THY    CA145781   8.276   3.461   4.728  0.1851  0.1075 -0.9020
18213THY    CA245782   8.257   3.516   4.598 -0.1671 -0.1970 -0.3076
18213THY    CP145783   8.316   3.447   4.481 -0.1409  0.9715 -0.2426
18213THY    HP145784   8.383   3.378   4.533  2.0385  1.0795  1.8171
18213THY    CP245785   8.395   3.530   4.387  0.2065  0.1180 -0.4558
18213THY    HP245786   8.341   3.609   4.332  1.7947  0.5592  1.0073
18213THY    HP345787   8.444   3.464   4.314  0.1140  0.2884 -0.7115
18213THY    HP445788   8.467   3.592   4.442 -0.3708 -0.1336  0.4614
18213THY    CP345789   8.221   3.357   4.394 -0.6643 -0.5251 -0.3181
18213THY    HP545790   8.263   3.304   4.308 -1.4114 -1.6141  0.8088
18213THY    HP645791   8.137   3.418   4.357  1.1169 -1.5730  1.6445
18213THY    HP745792   8.189   3.283   4.468  0.1482  0.2645  0.1031
18213THY    CA345793   8.192   3.643   4.581 -0.7577 -0.8935 -0.4719
18213THY    HA345794   8.173   3.693   4.487  0.9144 -0.5347  0.9510
18213THY    CA445795   8.147   3.706   4.701  0.4291 -0.0009  0.1600
18213THY    HA445796   8.101   3.804   4.696  0.5856 -1.3066  0.1857
18213THY    CA545797   8.172   3.649   4.827 -0.0486 -0.3841  0.5106
18213THY    CM145798   8.125   3.721   4.941  0.8131  0.0959 -0.0690
18213THY    HM145799   8.212   3.737   5.006  1.8717 -1.5109  1.0759
18213THY    HM245800   8.047   3.671   5.000  0.7870 -0.7631 -1.0717
18213THY    HM345801   8.086   3.821   4.919 -2.8158  1.8040 -0.9402
18213THY    CA645802   8.234   3.530   4.842  0.3970  0.1951  0.3193
18213THY    HA645803   8.257   3.493   4.941  1.6665 -0.0062  0.5207
18214THY      O45804   4.069   1.149   3.461  0.7885  0.1890 -0.2898
18214THY     HO45805   4.129   1.191   3.524  0.0076 -0.0071  1.1844
18214THY    CA145806   4.066   1.223   3.350  0.3950 -0.1021  0.1088
18214THY    CA245807   3.976   1.196   3.245  0.0876 -0.1727  0.2243
18214THY    CP145808   3.883   1.083   3.257  0.0176  0.4543 -0.5344
18214THY    HP145809   3.872   1.043   3.359 -0.5371  1.5670  2.2557
18214THY    CP245810   3.942   0.968   3.172 -0.1955 -0.5501  0.0095
18214THY    HP245811   3.878   0.879   3.179 -0.9534  0.5935  0.6278
18214THY    HP345812   4.036   0.935   3.218  0.1265 -1.6752 -0.6791
18214THY    HP445813   3.953   0.999   3.067  1.6402 -0.6372 -0.7887
18214THY    CP345814   3.745   1.128   3.207 -0.0258 -0.4371  0.0274
18214THY    HP545815   3.746   1.146   3.099  1.8732 -0.1961  1.7511
18214THY    HP645816   3.712   1.217   3.262  1.7107 -1.6672  1.5180
18214THY    HP745817   3.669   1.049   3.214  1.2442 -0.0426 -1.1918
18214THY    CA345818   3.988   1.277   3.132 -0.4822 -0.5895  0.8258
18214THY    HA345819   3.924   1.258   3.047 -0.4266 -0.2904 -0.8872
18214THY    CA445820   4.063   1.397   3.130  0.2006  0.5489 -0.6123
18214THY    HA445821   4.056   1.474   3.054  0.3461 -0.2492 -1.3683
18214THY    CA545822   4.145   1.425   3.241  0.6307 -0.2639  0.2867
18214THY    CM145823   4.207   1.556   3.256  0.6149  0.2061 -0.3012
18214THY    HM145824   4.201   1.586   3.362  1.3573  0.7508 -1.9463
18214THY    HM245825   4.143   1.626   3.201  0.4391 -0.4187 -0.9520
18214THY    HM345826   4.309   1.557   3.215  0.0094 -1.3601  1.1590
18214THY    CA645827   4.140   1.338   3.351  0.0353  0.2327  0.7134
18214THY    HA645828   4.184   1.368   3.445  0.1770 -0.0826  1.5190
18215THY      O45829   8.140   5.903   7.326 -0.1658 -0.3511  0.3882
18215THY     HO45830   8.073   5.925   7.393  0.3548 -1.0616  5.0191
18215THY    CA145831   8.075   5.921   7.207  1.0829 -0.5837 -0.5001
18215THY    CA245832   8.026   5.810   7.136  0.5251  1.1528 -0.2276
18215THY    CP145833   8.074   5.669   7.161  0.7684  0.4006 -0.5863
18215THY    HP145834   8.123   5.667   7.259  1.5652  0.0760  1.1484
18215THY    CP245835   8.193   5.641   7.073  0.7523  0.0180 -0.0789
18215THY    HP245836   8.161   5.663   6.970 -2.3076  0.2893 -2.6042
18215THY    HP345837   8.225   5.537   7.088  0.4026 -0.2233 -0.2224
18215THY    HP445838   8.284   5.693   7.106  1.8612 -1.1003 -1.2308
18215THY    CP345839   7.956   5.569   7.153  0.2860 -0.2466 -0.0367
18215THY    HP545840   7.864   5.605   7.201  1.0335 -0.6957  2.7816
18215THY    HP645841   7.982   5.479   7.209 -0.8727 -0.3193 -0.4301
18215THY    HP745842   7.944   5.547   7.047  1.8171 -0.0110 -2.2640
18215THY    CA345843   7.948   5.837   7.020  0.2525  0.8299  0.1371
18215THY    HA345844   7.909   5.755   6.960 -3.3601 -2.0648  3.6013
18215THY    CA445845   7.912   5.967   6.986 -0.7809  0.4307 -0.5535
18215THY    HA445846   7.846   5.983   6.901  0.7325 -0.6879 -0.0071
18215THY    CA545847   7.950   6.074   7.059 -0.0780 -0.0213  0.9298
18215THY    CM145848   7.905   6.202   7.018  0.1037 -0.2856 -0.3176
18215THY    HM145849   7.982   6.256   6.961 -0.1853  1.2596  1.8667
18215THY    HM245850   7.861   6.252   7.105  0.4644  0.3447 -1.0728
18215THY    HM345851   7.822   6.189   6.947  1.3135 -1.3900 -2.3693
18215THY    CA645852   8.030   6.054   7.174 -0.4907 -0.2135  0.5048
18215THY    HA645853   8.059   6.136   7.240  0.4502 -0.7518  0.6219
18216THY      O45854   7.574   5.001   3.951 -0.1413 -0.0719  0.1100
18216THY     HO45855   7.503   5.027   3.890  0.5218 -0.5747  0.7882
18216THY    CA145856   7.525   4.887   3.999  0.4664  0.1452  0.7440
18216THY    CA245857   7.605   4.805   4.077 -0.0184  0.8033 -0.4237
18216THY    CP145858   7.747   4.848   4.120 -0.2465 -0.0193  0.3671
18216THY    HP145859   7.775   4.944   4.075 -0.1355  0.0019  0.3448
18216THY    CP245860   7.859   4.746   4.065 -0.0314  0.2771 -0.0222
18216THY    HP245861   7.843   4.645   4.102 -2.3262 -0.0093  0.1900
18216THY    HP345862   7.957   4.781   4.099 -0.1359  0.6768 -0.1206
18216THY    HP445863   7.853   4.755   3.956 -2.3601  0.3768  0.2681
18216THY    CP345864   7.761   4.865   4.270 -0.4432  0.9052 -0.3862
18216THY    HP545865   7.862   4.847   4.308  0.7868 -1.8797  0.1875
18216THY    HP645866   7.684   4.808   4.324 -2.3875 -0.7665  0.5186
18216THY    HP745867   7.735   4.971   4.283  0.8122 -1.0710  0.2062
18216THY    CA345868   7.554   4.683   4.129  0.2511  0.5620  0.0821
18216THY    HA345869   7.615   4.624   4.197  0.0842  2.0296  1.5081
18216THY    CA445870   7.426   4.643   4.081 -0.4860 -0.1941  0.5956
18216THY    HA445871   7.395   4.543   4.109  1.1999 -0.2426  0.0315
18216THY    CA545872   7.349   4.727   4.003 -0.3682  0.1593 -0.3340
18216THY    CM145873   7.221   4.694   3.951 -0.5595  0.0084 -0.0994
18216THY    HM145874   7.144   4.690   4.029  0.3635  0.9456 -0.0010
18216THY    HM245875   7.240   4.605   3.889  1.0397 -1.1342  0.9683
18216THY    HM345876   7.169   4.764   3.885 -0.1477 -1.9853 -1.5470
18216THY    CA645877   7.391   4.852   3.964 -0.4083  0.0047 -0.2719
18216THY    HA645878   7.326   4.914   3.902 -2.5802 -0.1214 -2.5297
18217THY      O45879   4.216   4.209   5.396  0.4570 -0.0918  0.4782
18217THY     HO45880   4.185   4.293   5.434  1.1609  2.6216 -0.3824
18217THY    CA145881   4.348   4.210   5.426 -0.1030 -0.1617  0.2077
18217THY    CA245882   4.443   4.145   5.341  0.2893  0.4750 -0.1211
18217THY    CP145883   4.396   4.068   5.212 -0.2212 -0.0978 -0.3314
18217THY    HP145884   4.290   4.088   5.197 -0.5183  1.7529 -0.3492
18217THY    CP245885   4.415   3.917   5.234  0.4411 -0.4957  0.6050
18217THY    HP245886   4.521   3.894   5.248  0.7793  0.4109  2.5355
18217THY    HP345887   4.383   3.860   5.146 -2.3484  0.8927 -0.1418
18217THY    HP445888   4.353   3.880   5.316 -1.9074 -1.2195  2.6274
18217THY    CP345889   4.483   4.117   5.088 -0.1501  0.1576 -0.3778
18217THY    HP545890   4.577   4.062   5.086  0.0406  0.9254 -0.0860
18217THY    HP645891   4.506   4.223   5.099 -2.4543  0.4069  0.1483
18217THY    HP745892   4.426   4.092   4.997  0.3896 -0.1337 -0.5513
18217THY    CA345893   4.582   4.163   5.373 -0.3925  0.9055  0.1384
18217THY    HA345894   4.666   4.128   5.313  0.5406  1.3635  1.5127
18217THY    CA445895   4.617   4.239   5.482 -0.0298 -0.7020 -0.0992
18217THY    HA445896   4.719   4.228   5.516 -0.0252 -0.7871 -0.3321
18217THY    CA545897   4.521   4.294   5.566 -0.6260  0.4590  0.7790
18217THY    CM145898   4.569   4.394   5.671 -0.0517  0.3438  0.2000
18217THY    HM145899   4.501   4.473   5.703  0.5014 -0.1600  0.9008
18217THY    HM245900   4.653   4.455   5.635  0.0675  3.0997  1.8189
18217THY    HM345901   4.600   4.338   5.760 -1.2017  0.4454 -0.3028
18217THY    CA645902   4.388   4.275   5.541  0.0932 -0.5371  0.1316
18217THY    HA645903   4.323   4.323   5.613  0.7182  0.0687  0.0874
18218THY      O45904   8.715   4.035   3.438  1.1571 -0.5543  0.6236
18218THY     HO45905   8.795   4.081   3.470  0.1453  2.0552  0.7816
18218THY    CA145906   8.696   4.057   3.306 -0.1041 -0.3749 -0.6775
18218THY    CA245907   8.598   3.993   3.224  0.0252  0.3227 -0.7019
18218THY    CP145908   8.504   3.910   3.285  0.5860 -0.3294  0.2559
18218THY    HP145909   8.504   3.939   3.391  1.9850  0.0956 -1.0832
18218THY    CP245910   8.555   3.763   3.292 -0.2128  0.2110 -0.0486
18218THY    HP245911   8.652   3.759   3.342 -0.4878  0.7602  0.0049
18218THY    HP345912   8.562   3.719   3.192  0.0975  0.6690 -1.0693
18218THY    HP445913   8.476   3.703   3.339 -3.0564 -2.5885  1.2025
18218THY    CP345914   8.350   3.929   3.242 -0.1138 -0.1394 -0.3756
18218THY    HP545915   8.289   3.871   3.313  2.8352  2.4813 -0.5268
18218THY    HP645916   8.337   3.892   3.140 -0.3331  0.1466 -1.0920
18218THY    HP745917   8.321   4.035   3.253 -0.6166 -2.0134 -0.2880
18218THY    CA345918   8.587   4.035   3.090  0.4503 -0.2605  0.3277
18218THY    HA345919   8.512   3.991   3.025  0.4564  1.3933 -2.3426
18218THY    CA445920   8.683   4.123   3.030  0.6626 -0.1075 -0.3945
18218THY    HA445921   8.673   4.155   2.926 -0.6920 -0.0710 -0.6228
18218THY    CA545922   8.779   4.183   3.116 -0.1119  0.7166 -0.2304
18218THY    CM145923   8.891   4.262   3.051  0.7706 -0.5111  0.4058
18218THY    HM145924   8.945   4.312   3.133 -2.1394 -0.0235  3.0656
18218THY    HM245925   8.853   4.350   2.998  0.8266 -1.4816 -0.1469
18218THY    HM345926   8.952   4.194   2.990 -0.9608  1.7785 -3.5244
18218THY    CA645927   8.783   4.149   3.254 -0.3891 -0.4510  0.8393
18218THY    HA645928   8.864   4.193   3.312  0.8913 -1.4060 -0.1554
18219THY      O45929   4.707   0.996   6.109  0.1797  0.6272 -0.4120
18219THY     HO45930   4.766   0.921   6.125  2.2029 -1.9536  0.4659
18219THY    CA145931   4.631   0.966   5.999 -0.1113  0.0209  0.1810
18219THY    CA245932   4.607   1.059   5.892 -0.2832  0.0344  0.3238
18219THY    CP145933   4.684   1.191   5.881  1.0953  0.3512 -0.2795
18219THY    HP145934   4.765   1.197   5.954  0.1705  1.2713  2.2008
18219THY    CP245935   4.590   1.317   5.911  0.5954  0.5216 -0.1763
18219THY    HP245936   4.527   1.356   5.830  1.8458 -0.2489  0.3124
18219THY    HP345937   4.664   1.398   5.914  2.1629 -1.5870 -1.3941
18219THY    HP445938   4.532   1.312   6.004  0.3060  0.3684  0.3304
18219THY    CP345939   4.733   1.210   5.748 -0.3742  0.3025  0.2393
18219THY    HP545940   4.660   1.237   5.671 -0.3689  0.4678  0.7419
18219THY    HP645941   4.807   1.135   5.721  0.8690  1.7620  0.8712
18219THY    HP745942   4.810   1.286   5.766  0.4472  1.3530 -0.7953
18219THY    CA345943   4.504   1.032   5.799  0.6836 -0.2618  0.7359
18219THY    HA345944   4.497   1.096   5.713  3.6796 -0.0807  1.4665
18219THY    CA445945   4.437   0.913   5.808  0.1097  0.2952  0.2281
18219THY    HA445946   4.378   0.875   5.725  0.0411  0.3835  0.1433
18219THY    CA545947   4.484   0.815   5.896 -0.1493  0.9066  0.3515
18219THY    CM145948   4.411   0.677   5.894 -0.0089  0.4326 -0.2484
18219THY    HM145949   4.330   0.681   5.820  1.2108 -0.9185  2.4777
18219THY    HM245950   4.373   0.665   5.996  1.1646  1.0133  0.7825
18219THY    HM345951   4.480   0.595   5.871 -0.4545 -1.2924 -0.1798
18219THY    CA645952   4.570   0.846   5.998 -0.3108  0.3159  0.3906
18219THY    HA645953   4.587   0.777   6.081  1.5655  2.4107  3.1436
18220THY      O45954   4.975   1.931   4.978  0.4044 -0.2220 -0.1612
18220THY     HO45955   4.931   2.016   4.963 -1.2447 -0.1381 -0.9570
18220THY    CA145956   4.922   1.832   4.903 -0.5100  0.3807 -0.1643
18220THY    CA245957   4.957   1.693   4.922  0.1930 -0.2023 -0.1866
18220THY    CP145958   5.047   1.649   5.029 -0.2957  0.9203  0.0620
18220THY    HP145959   5.114   1.729   5.063  1.3979 -1.2364 -0.3375
18220THY    CP245960   5.140   1.534   4.986  0.0329  0.4947 -0.2214
18220THY    HP245961   5.192   1.553   4.892 -1.3002 -0.3496 -0.6122
18220THY    HP345962   5.082   1.441   4.976  1.6885 -2.1978 -1.0775
18220THY    HP445963   5.220   1.511   5.057  1.6456 -1.3168 -0.4149
18220THY    CP345964   4.975   1.601   5.153  0.2736 -0.0492  0.6409
18220THY    HP545965   4.912   1.514   5.131  1.6828  2.3499 -1.0974
18220THY    HP645966   4.913   1.680   5.198 -0.7050  0.4054 -0.3666
18220THY    HP745967   5.043   1.578   5.235 -1.9927  1.9801  0.7892
18220THY    CA345968   4.889   1.599   4.847  0.8840 -0.2933 -0.2771
18220THY    HA345969   4.905   1.492   4.861 -0.9095 -1.8913 -0.7994
18220THY    CA445970   4.802   1.628   4.743  0.0096 -0.1210 -0.8186
18220THY    HA445971   4.754   1.547   4.689 -1.0713  0.8851 -0.8765
18220THY    CA545972   4.756   1.762   4.734  0.5529  0.3488  0.1961
18220THY    CM145973   4.638   1.795   4.645 -0.4426 -0.2211 -0.4351
18220THY    HM145974   4.558   1.817   4.717 -2.1444 -0.5759 -4.6005
18220THY    HM245975   4.600   1.713   4.583  1.5726 -1.3265 -0.6047
18220THY    HM345976   4.656   1.884   4.584 -5.0334 -0.8198  0.3046
18220THY    CA645977   4.824   1.865   4.810  0.1337 -0.3077 -0.2807
18220THY    HA645978   4.795   1.967   4.788 -0.4057 -0.7103 -0.5184
18221THY      O45979   0.547   5.511   5.072 -0.0553 -0.4648 -0.0041
18221THY     HO45980   0.554   5.598   5.029 -0.7225 -0.7155 -0.0662
18221THY    CA145981   0.666   5.499   5.132  0.8190  0.4220 -0.0284
18221THY    CA245982   0.705   5.378   5.197  0.5032  0.9949 -0.3735
18221THY    CP145983   0.603   5.263   5.210  0.5282  0.8131 -0.1353
18221THY    HP145984   0.513   5.266   5.148 -0.4271  2.0581 -1.8590
18221THY    CP245985   0.551   5.253   5.354  0.1546 -0.1530 -0.2610
18221THY    HP245986   0.640   5.241   5.417 -0.3859  0.5690 -0.5336
18221THY    HP345987   0.485   5.167   5.371  0.5346 -0.3029 -0.5837
18221THY    HP445988   0.505   5.343   5.396  2.4214  0.1035  0.8456
18221THY    CP345989   0.671   5.134   5.167  0.5422  0.0081 -0.4665
18221THY    HP545990   0.610   5.047   5.196  0.9054  0.1249 -0.6880
18221THY    HP645991   0.773   5.122   5.206  0.2889  1.0488  0.5991
18221THY    HP745992   0.671   5.136   5.058 -1.9236 -0.0251  0.5261
18221THY    CA345993   0.824   5.373   5.261  0.6013 -0.7880 -0.1530
18221THY    HA345994   0.842   5.300   5.339  1.0982  2.2102  2.9280
18221THY    CA445995   0.918   5.476   5.251  0.0309  0.0115 -0.7271
18221THY    HA445996   1.014   5.473   5.301  0.3936 -0.5143  0.9116
18221THY    CA545997   0.886   5.596   5.181  0.6128 -0.2133  1.0124
18221THY    CM145998   0.978   5.713   5.164  0.4785 -0.4816  0.0859
18221THY    HM145999   1.006   5.741   5.267 -0.1586  0.9664 -3.8603
18221THY    HM246000   0.935   5.802   5.118  1.0730  0.2967  0.8028
18221THY    HM346001   1.069   5.688   5.108 -0.0719 -0.8298 -1.2535
18221THY    CA646002   0.758   5.604   5.120  0.6042  0.9138 -0.5745
18221THY    HA646003   0.738   5.694   5.062 -1.3255 -0.1446 -1.6312
18222THY      O46004   4.989   4.378   2.481 -0.2937 -0.2221 -0.2673
18222THY     HO46005   5.016   4.446   2.417 -0.5520 -1.5696 -1.3812
18222THY    CA146006   5.029   4.259   2.431 -0.8185 -0.8915  0.0608
18222THY    CA246007   5.074   4.161   2.524 -0.2832  0.2265 -0.1407
18222THY    CP146008   5.086   4.191   2.667  0.0341 -0.4685  0.4533
18222THY    HP146009   5.018   4.272   2.697  0.5100 -0.7183  0.9599
18222THY    CP246010   5.232   4.252   2.692  0.7145  0.3398  1.1543
18222THY    HP246011   5.243   4.273   2.799 -2.7690  1.8702 -3.2411
18222THY    HP346012   5.252   4.335   2.624  0.3509 -0.5809  0.5027
18222THY    HP446013   5.304   4.173   2.669  0.5321  0.5975  0.9110
18222THY    CP346014   5.051   4.072   2.760 -0.1871  0.0424  0.0943
18222THY    HP546015   5.079   4.110   2.858 -1.4706  0.0040  1.2443
18222THY    HP646016   5.114   3.983   2.751 -1.8275  0.0930 -1.1276
18222THY    HP746017   4.947   4.036   2.755 -0.1747 -1.6411  0.1936
18222THY    CA346018   5.118   4.040   2.473 -0.7715 -0.2909  0.1324
18222THY    HA346019   5.158   3.956   2.529 -1.0130 -1.9881 -1.1768
18222THY    CA446020   5.123   4.025   2.325  0.1263  0.0675 -0.6773
18222THY    HA446021   5.167   3.936   2.280 -1.2837 -0.7130 -1.0030
18222THY    CA546022   5.075   4.129   2.247  0.1753 -0.1451  0.7036
18222THY    CM146023   5.083   4.122   2.096 -0.8324 -0.4756 -0.5247
18222THY    HM146024   4.993   4.063   2.070 -0.4437  0.0528 -1.3713
18222THY    HM246025   5.167   4.052   2.085  0.2921  2.5614  0.1982
18222THY    HM346026   5.097   4.217   2.043 -1.5158  2.2019  1.1607
18222THY    CA646027   5.024   4.244   2.303 -0.0373  0.3964 -0.3911
18222THY    HA646028   5.001   4.322   2.231  1.2312 -1.2663 -1.4651
18223THY      O46029   1.846   9.119   6.379  0.2457 -0.2179  0.1070
18223THY     HO46030   1.789   9.065   6.437 -1.3862  0.1156  2.0442
18223THY    CA146031   1.764   9.220   6.336  0.4421 -0.5989 -0.2790
18223THY    CA246032   1.751   9.253   6.202  0.2418  0.5045  0.2321
18223THY    CP146033   1.824   9.177   6.092  0.1249  0.6875  0.2184
18223THY    HP146034   1.915   9.136   6.138  1.1599 -2.0747 -0.7995
18223THY    CP246035   1.884   9.262   5.981  0.0437 -0.4807 -0.2806
18223THY    HP246036   1.935   9.355   6.009 -0.7763 -1.0922  0.3683
18223THY    HP346037   1.796   9.314   5.941 -1.2426  4.4796  1.9355
18223THY    HP446038   1.944   9.202   5.912 -1.2280 -0.3369 -1.7717
18223THY    CP346039   1.741   9.065   6.028 -0.4430 -0.3314 -0.6267
18223THY    HP546040   1.708   9.012   6.118  2.5722  1.1438 -0.1703
18223THY    HP646041   1.798   8.998   5.963  0.4749  0.6139 -0.7793
18223THY    HP746042   1.656   9.100   5.968  1.4353 -2.5414  0.4036
18223THY    CA346043   1.653   9.340   6.162  0.9975  0.2378  0.0242
18223THY    HA346044   1.634   9.356   6.056  0.9559 -0.1532 -2.2926
18223THY    CA446045   1.575   9.406   6.256  0.3024 -0.2517  0.1737
18223THY    HA446046   1.499   9.477   6.224 -0.9781 -0.1689 -1.1156
18223THY    CA546047   1.580   9.378   6.388  0.6723 -0.4924  0.2334
18223THY    CM146048   1.488   9.454   6.487  0.1199 -0.5760 -0.3214
18223THY    HM146049   1.417   9.512   6.427  1.0506 -2.1596 -0.7467
18223THY    HM246050   1.542   9.525   6.550  1.1984 -2.9928  1.1416
18223THY    HM346051   1.442   9.384   6.557  0.5554  0.5119  0.4535
18223THY    CA646052   1.676   9.282   6.430  0.0540 -0.1382  0.0900
18223THY    HA646053   1.678   9.263   6.537  0.2870  0.4359  3.0262
18224THY      O46054   4.455   8.064   2.536 -0.2520 -0.1661 -0.2532
18224THY     HO46055   4.449   7.972   2.568  4.5826 -1.3412 -1.2569
18224THY    CA146056   4.530   8.116   2.632 -0.0285 -0.1164  0.2814
18224THY    CA246057   4.524   8.248   2.675  0.3880  0.2951  0.3893
18224THY    CP146058   4.410   8.334   2.611  0.0556 -0.6341 -0.3853
18224THY    HP146059   4.395   8.296   2.510 -0.7196  0.1818 -2.3909
18224THY    CP246060   4.445   8.473   2.583 -0.3551 -0.0776 -0.7353
18224THY    HP246061   4.362   8.526   2.536 -0.8976 -0.0503 -1.5479
18224THY    HP346062   4.541   8.472   2.529  0.7771  1.8749 -1.5679
18224THY    HP446063   4.463   8.513   2.683 -0.3809  0.1018 -1.1751
18224THY    CP346064   4.292   8.311   2.697 -0.0257 -0.1479 -0.5681
18224THY    HP546065   4.221   8.395   2.696 -2.3382  1.5260 -2.3488
18224THY    HP646066   4.325   8.303   2.801  0.1614 -0.3064 -2.1895
18224THY    HP746067   4.231   8.223   2.672 -1.7520 -0.9773  0.8018
18224THY    CA346068   4.621   8.289   2.766  0.3526  0.4035 -0.0224
18224THY    HA346069   4.607   8.394   2.792 -1.6408  0.8855 -0.3682
18224THY    CA446070   4.715   8.203   2.818 -0.0334  0.3650 -0.8725
18224THY    HA446071   4.794   8.222   2.891 -0.0584  0.6935 -1.9725
18224THY    CA546072   4.716   8.072   2.775  0.2689  0.6913 -0.4178
18224THY    CM146073   4.811   7.974   2.824  0.4062 -0.3200  0.1048
18224THY    HM146074   4.856   8.001   2.920 -1.6437  0.8185 -0.3276
18224THY    HM246075   4.903   7.966   2.765 -0.1908 -0.9732 -3.0188
18224THY    HM346076   4.765   7.875   2.834 -0.4293  1.5256  0.6335
18224THY    CA646077   4.626   8.032   2.680 -0.5574 -0.0612 -0.2308
18224THY    HA646078   4.650   7.932   2.646 -1.8177  1.0749 -0.9435
18225THY      O46079   9.100   9.270   3.812  0.2658 -0.1779  0.3376
18225THY     HO46080   9.101   9.295   3.718  1.0469  0.7601  4.5099
18225THY    CA146081   8.998   9.174   3.821 -0.5218  0.3837  0.4731
18225THY    CA246082   8.961   9.119   3.944  0.7351  1.2912  0.7206
18225THY    CP146083   9.019   9.147   4.084 -0.6103 -0.2484 -0.1446
18225THY    HP146084   9.037   9.255   4.090  1.8631 -1.1764 -0.4385
18225THY    CP246085   9.162   9.082   4.113 -0.8429 -0.4702  0.2532
18225THY    HP246086   9.142   8.976   4.130 -0.7646 -0.4947  0.2342
18225THY    HP346087   9.203   9.118   4.208  0.1584 -0.0389 -1.9173
18225THY    HP446088   9.232   9.087   4.028  1.3891  1.1547 -1.4544
18225THY    CP346089   8.932   9.115   4.200 -0.6908  0.1901 -0.7449
18225THY    HP546090   8.978   9.163   4.286  0.8677  0.0742 -1.9497
18225THY    HP646091   8.931   9.008   4.223  0.0324 -1.7587 -1.2184
18225THY    HP746092   8.831   9.153   4.181 -0.0281  0.1085  1.0444
18225THY    CA346093   8.858   9.023   3.937 -0.0443  0.5143  0.2941
18225THY    HA346094   8.828   8.965   4.024  1.7887  1.8480  1.2179
18225THY    CA446095   8.811   8.975   3.815  0.0344 -0.4088 -0.9100
18225THY    HA446096   8.738   8.895   3.814  1.0778  0.0759 -1.8877
18225THY    CA546097   8.851   9.031   3.696  0.4345  0.3263  0.2174
18225THY    CM146098   8.790   8.990   3.566 -0.1423  0.2042  0.3518
18225THY    HM146099   8.847   8.923   3.501  0.7447 -1.8044  2.8590
18225THY    HM246100   8.804   9.083   3.509 -1.4923  0.4921  0.7547
18225THY    HM346101   8.680   8.988   3.562 -0.1320 -2.5725  1.0478
18225THY    CA646102   8.945   9.136   3.698 -0.0561  0.3101  0.3915
18225THY    HA646103   8.988   9.167   3.603 -1.8672 -0.6911  0.0271
18226THY      O46104   3.111   5.126   3.715 -0.7442  0.3210 -0.0351
18226THY     HO46105   3.022   5.126   3.753 -1.1259 -0.5128  1.0934
18226THY    CA146106   3.149   4.998   3.692 -0.4527 -0.2387 -0.6967
18226THY    CA246107   3.281   4.960   3.680 -0.5018 -0.0997  0.5615
18226THY    CP146108   3.389   5.065   3.679 -0.4684  0.0184  0.2116
18226THY    HP146109   3.351   5.168   3.678 -0.9464 -0.3099  0.0374
18226THY    CP246110   3.483   5.049   3.554 -0.3440 -0.1877 -0.0281
18226THY    HP246111   3.561   5.124   3.571  0.0827  0.4615 -0.6015
18226THY    HP346112   3.422   5.085   3.471  0.8977 -0.4416  1.5584
18226THY    HP446113   3.531   4.952   3.534  1.0688 -1.9659  1.0010
18226THY    CP346114   3.469   5.049   3.808  0.0603  0.0483 -0.0104
18226THY    HP546115   3.517   4.951   3.822 -0.9551  0.0506 -0.5152
18226THY    HP646116   3.407   5.073   3.895 -0.1883  0.3898 -1.7730
18226THY    HP746117   3.545   5.127   3.819  1.0991  4.2308 -1.3765
18226THY    CA346118   3.308   4.822   3.674 -0.1247  0.0453  0.5064
18226THY    HA346119   3.410   4.784   3.680  0.5972  1.0040  2.4264
18226THY    CA446120   3.193   4.737   3.666  0.2564  0.8157  0.7862
18226THY    HA446121   3.201   4.628   3.660 -1.9697 -2.6634  0.6691
18226THY    CA546122   3.066   4.779   3.673  0.0363 -0.4860 -0.0410
18226THY    CM146123   2.946   4.681   3.674  0.4357  0.4326 -0.1108
18226THY    HM146124   2.849   4.726   3.696  0.3303  0.2516 -0.2477
18226THY    HM246125   2.961   4.599   3.745  1.4961 -0.7633 -0.9995
18226THY    HM346126   2.939   4.642   3.572  0.1156 -0.3633  1.9177
18226THY    CA646127   3.044   4.913   3.690 -0.2786  0.0748  0.1559
18226THY    HA646128   2.941   4.946   3.692 -0.2252 -0.9207  0.4031
18227THY      O46129   7.306   6.911   2.665 -0.3327 -0.8626 -0.1552
18227THY     HO46130   7.268   6.934   2.579 -3.3058 -0.7974 -3.8236
18227THY    CA146131   7.211   6.916   2.765  0.3036  0.1884  0.6581
18227THY    CA246132   7.247   6.904   2.900  0.1994  0.4714 -0.1149
18227THY    CP146133   7.393   6.868   2.933  0.2032 -0.4288  0.0270
18227THY    HP146134   7.437   6.801   2.859  0.6254 -0.1946  0.0440
18227THY    CP246135   7.418   6.803   3.078 -0.6934  0.3108 -0.3533
18227THY    HP246136   7.404   6.883   3.152  0.0538  0.5931 -0.4803
18227THY    HP346137   7.522   6.770   3.089  0.5596 -1.8074  2.4919
18227THY    HP446138   7.348   6.725   3.110  1.3560  4.3614 -0.8133
18227THY    CP346139   7.475   7.004   2.935  0.0695 -0.2854  0.1683
18227THY    HP546140   7.464   7.072   2.850 -1.3787  0.8669  1.4634
18227THY    HP646141   7.581   6.986   2.957 -0.3627  1.2571 -0.6267
18227THY    HP746142   7.434   7.062   3.019  1.5051  2.6471 -2.7570
18227THY    CA346143   7.154   6.929   3.003  0.2841  0.6854 -0.3368
18227THY    HA346144   7.179   6.933   3.108 -0.2551  0.7853  0.6124
18227THY    CA446145   7.023   6.961   2.964  0.0478 -0.0980 -1.0691
18227THY    HA446146   6.954   6.982   3.045 -0.6343 -1.3600  2.2234
18227THY    CA546147   6.978   6.961   2.830  0.2982  0.1637  0.1167
18227THY    CM146148   6.838   7.007   2.804 -0.3021 -0.0215  0.3333
18227THY    HM146149   6.792   7.068   2.883 -0.4288  0.6257 -0.5778
18227THY    HM246150   6.763   6.928   2.787  0.4080 -0.8462 -0.1776
18227THY    HM346151   6.847   7.075   2.718 -2.5061  1.6637  2.9499
18227THY    CA646152   7.076   6.940   2.735 -0.6235 -0.0610 -0.5487
18227THY    HA646153   7.046   6.957   2.633 -1.0402  0.2458  0.6508
18228THY      O46154   2.153   5.602   1.788  0.3673  0.1669  0.8306
18228THY     HO46155   2.224   5.565   1.844 -2.2208  2.7748 -0.6345
18228THY    CA146156   2.070   5.667   1.866  0.8326  0.0264  0.1998
18228THY    CA246157   1.937   5.679   1.826 -1.0238  0.5886  0.4980
18228THY    CP146158   1.884   5.611   1.700 -0.0559  0.2242  0.6230
18228THY    HP146159   1.962   5.594   1.625 -0.9298 -0.3020 -1.3911
18228THY    CP246160   1.772   5.694   1.625  0.0927 -0.0080 -0.0564
18228THY    HP246161   1.733   5.635   1.541  0.8292  1.3380 -2.6142
18228THY    HP346162   1.813   5.783   1.574 -0.5674  0.5189  0.5635
18228THY    HP446163   1.693   5.739   1.686  1.4910  0.8236  1.3720
18228THY    CP346164   1.832   5.472   1.734  0.3040  0.7321 -0.5016
18228THY    HP546165   1.904   5.407   1.787  0.9807 -0.6132 -0.8917
18228THY    HP646166   1.812   5.429   1.635  0.6393  0.3391  0.2296
18228THY    HP746167   1.736   5.469   1.787 -0.1088 -0.0240 -1.0904
18228THY    CA346168   1.855   5.744   1.922 -0.0069  0.3303 -0.1217
18228THY    HA346169   1.749   5.762   1.903 -0.1114  0.7924 -0.2401
18228THY    CA446170   1.911   5.812   2.033 -0.1172  0.1675  0.4405
18228THY    HA446171   1.837   5.855   2.100 -2.0391  0.4429 -2.9200
18228THY    CA546172   2.052   5.806   2.068 -0.5159  1.3184 -0.1664
18228THY    CM146173   2.111   5.876   2.187  0.3732  0.1545 -0.4753
18228THY    HM146174   2.133   5.981   2.165  0.3710 -0.1306 -0.5340
18228THY    HM246175   2.200   5.832   2.232  0.0795  2.8543  1.4228
18228THY    HM346176   2.046   5.881   2.275 -0.2025 -0.3154  0.9979
18228THY    CA646177   2.126   5.730   1.973 -0.4599  0.4326 -0.3890
18228THY    HA646178   2.232   5.711   1.992 -0.1416 -0.6591  0.1933
18229THY      O46179   8.271   4.484   4.897  0.6506  0.1472 -0.4091
18229THY     HO46180   8.235   4.573   4.913 -0.5984 -0.9736 -0.6706
18229THY    CA146181   8.406   4.494   4.904 -0.0557  0.0146 -0.3297
18229THY    CA246182   8.494   4.378   4.894 -0.8506  0.0851 -0.6712
18229THY    CP146183   8.428   4.246   4.864 -0.2580 -0.8322  0.0201
18229THY    HP146184   8.319   4.256   4.866 -0.1999  1.9901  1.3435
18229THY    CP246185   8.455   4.150   4.984 -0.7617  0.2566 -0.2940
18229THY    HP246186   8.560   4.132   5.007 -0.0394 -0.3211  2.7218
18229THY    HP346187   8.412   4.050   4.966 -0.0281  3.1207 -1.2317
18229THY    HP446188   8.408   4.186   5.076  0.6241  0.5874  0.7167
18229THY    CP346189   8.490   4.172   4.736  0.2236  0.0413  0.3274
18229THY    HP546190   8.476   4.235   4.647 -3.0047  0.4682  0.4038
18229THY    HP646191   8.446   4.073   4.722  1.1017 -0.0502 -0.0574
18229THY    HP746192   8.595   4.146   4.751 -0.6432  2.9623 -1.9375
18229THY    CA346193   8.633   4.398   4.906  0.1716  0.5811 -0.4332
18229THY    HA346194   8.693   4.308   4.897  0.9703 -2.0081  0.2799
18229THY    CA446195   8.679   4.527   4.932  0.2386  0.1949  0.0692
18229THY    HA446196   8.784   4.530   4.959  0.0333  1.0778 -0.1409
18229THY    CA546197   8.595   4.638   4.944  0.4235  0.0955 -0.2354
18229THY    CM146198   8.654   4.760   4.991 -1.6101 -0.4287  0.3833
18229THY    HM146199   8.677   4.830   4.910  0.8442  0.2625  0.4895
18229THY    HM246200   8.748   4.739   5.044 -2.6234  0.8137 -1.2461
18229THY    HM346201   8.592   4.811   5.065 -2.0724  0.2385 -1.0930
18229THY    CA646202   8.460   4.617   4.935  1.0380  0.0842  0.1613
18229THY    HA646203   8.388   4.698   4.939 -0.5803  2.0730 -1.2536
18230THY      O46204   6.457   5.931   2.252 -0.3937  0.0229  0.3580
18230THY     HO46205   6.393   5.880   2.305 -1.3411 -1.2708  0.1495
18230THY    CA146206   6.570   5.864   2.252 -0.7271  1.1344 -1.1308
18230THY    CA246207   6.698   5.923   2.270 -0.2534 -0.4926  0.7417
18230THY    CP146208   6.713   6.074   2.284  0.0612 -0.2608 -0.6205
18230THY    HP146209   6.632   6.117   2.224  0.8289 -0.8662  0.0305
18230THY    CP246210   6.824   6.133   2.214 -0.3398  0.5771  0.1488
18230THY    HP246211   6.912   6.113   2.277 -0.7753  0.8463 -0.9638
18230THY    HP346212   6.821   6.243   2.213  2.6472 -0.8904  0.3142
18230THY    HP446213   6.832   6.096   2.111 -0.0432 -0.1521  2.1079
18230THY    CP346214   6.703   6.136   2.424  0.1991  0.4136 -0.5467
18230THY    HP546215   6.714   6.244   2.415  2.5731  1.6850 -0.5997
18230THY    HP646216   6.780   6.093   2.490  0.6300  0.5659  0.4443
18230THY    HP746217   6.607   6.110   2.470  1.2610  2.7203 -0.6880
18230THY    CA346218   6.814   5.835   2.251  0.2866  0.1122  0.5477
18230THY    HA346219   6.917   5.869   2.250 -0.2407 -2.4750  2.3746
18230THY    CA446220   6.791   5.698   2.235 -0.0212  0.0637 -0.2410
18230THY    HA446221   6.875   5.633   2.215  0.5220 -1.0618  0.7646
18230THY    CA546222   6.665   5.644   2.236 -0.3445 -0.2038  0.4574
18230THY    CM146223   6.651   5.497   2.211  0.4409 -0.2467  0.1876
18230THY    HM146224   6.746   5.443   2.217  0.8550 -0.8489  0.8356
18230THY    HM246225   6.617   5.477   2.109  1.3212 -0.5378  0.1230
18230THY    HM346226   6.579   5.449   2.279 -0.3326 -0.4082  1.0925
18230THY    CA646227   6.558   5.728   2.241  0.2649  0.7996  0.5319
18230THY    HA646228   6.467   5.673   2.219  2.2405 -0.5150 -2.4851
18231THY      O46229   1.644   1.102   3.973 -0.2590  0.1050  0.1428
18231THY     HO46230   1.637   1.082   4.068 -3.9037 -0.0343  0.0652
18231THY    CA146231   1.752   1.185   3.955 -0.5120 -0.0741  1.0174
18231THY    CA246232   1.795   1.238   3.831  0.0102 -0.6344  0.7773
18231THY    CP146233   1.699   1.231   3.705 -0.3334  0.0457 -0.0969
18231THY    HP146234   1.605   1.185   3.738 -0.6230  0.2934  0.6547
18231THY    CP246235   1.771   1.147   3.602  0.2785  0.0388 -0.1512
18231THY    HP246236   1.845   1.214   3.558 -0.3503 -0.1343  0.4460
18231THY    HP346237   1.717   1.118   3.511  2.3612 -0.6740 -2.0314
18231THY    HP446238   1.811   1.062   3.658  0.3569 -1.2729 -1.0089
18231THY    CP346239   1.667   1.363   3.636  0.3065 -0.3774  0.2999
18231THY    HP546240   1.636   1.344   3.533  2.6853 -0.6834 -2.5258
18231THY    HP646241   1.753   1.430   3.649  1.9176 -1.0906 -1.5539
18231THY    HP746242   1.578   1.414   3.677 -0.0493  1.1250 -1.4211
18231THY    CA346243   1.921   1.306   3.823 -0.6661 -0.4989  0.1073
18231THY    HA346244   1.958   1.351   3.731  1.6288  1.5994  2.8604
18231THY    CA446245   1.996   1.320   3.947  0.0344 -0.1546  0.1826
18231THY    HA446246   2.089   1.375   3.958  0.0666  1.7274 -0.1815
18231THY    CA546247   1.956   1.251   4.063  0.1756 -0.0504 -0.3070
18231THY    CM146248   2.025   1.250   4.188 -0.3797 -0.1823  0.0441
18231THY    HM146249   2.120   1.306   4.190 -0.6035 -0.0943  0.4252
18231THY    HM246250   2.044   1.151   4.231  1.1224 -0.2369  0.2755
18231THY    HM346251   1.976   1.301   4.272 -0.5283 -0.4885  0.4063
18231THY    CA646252   1.837   1.180   4.063  0.4907 -0.4012 -0.4607
18231THY    HA646253   1.800   1.129   4.151 -2.7418 -1.7511 -0.6970
18232THY      O46254   7.575   0.631   7.124  0.5197  0.1666 -0.4610
18232THY     HO46255   7.577   0.573   7.202  0.0319  0.5421  0.0172
18232THY    CA146256   7.537   0.554   7.015 -1.0420 -0.0079 -0.2783
18232THY    CA246257   7.616   0.554   6.896  0.1582 -0.4032  0.0205
18232THY    CP146258   7.717   0.660   6.865 -0.3050  0.2661 -0.4378
18232THY    HP146259   7.735   0.716   6.958 -4.7971  1.4978 -0.5989
18232THY    CP246260   7.653   0.757   6.770 -0.3514  0.2853  0.2497
18232THY    HP246261   7.557   0.793   6.808 -2.2546 -2.6277 -1.4144
18232THY    HP346262   7.641   0.701   6.677  0.8634  0.7923 -0.9321
18232THY    HP446263   7.715   0.846   6.757 -2.5001  2.3800  2.1930
18232THY    CP346264   7.856   0.615   6.808  0.2943  0.4888  0.6376
18232THY    HP546265   7.932   0.694   6.810 -0.5582  4.0804  1.5776
18232THY    HP646266   7.844   0.570   6.709 -0.2006  0.8726 -0.0912
18232THY    HP746267   7.901   0.529   6.859  2.1176 -0.4910  0.9580
18232THY    CA346268   7.590   0.459   6.795  0.1267  0.1630  0.2497
18232THY    HA346269   7.633   0.461   6.696 -1.8040 -0.7419 -0.9480
18232THY    CA446270   7.499   0.363   6.815 -0.1765 -0.0637 -0.0641
18232THY    HA446271   7.488   0.291   6.735  2.0237 -0.1060 -0.4178
18232THY    CA546272   7.411   0.363   6.929 -0.5144  0.0402  0.6757
18232THY    CM146273   7.300   0.262   6.936  0.3058  0.4446  0.2095
18232THY    HM146274   7.343   0.162   6.918 -1.6117  1.0903 -0.7754
18232THY    HM246275   7.218   0.279   6.865 -1.7341  2.0573 -2.2603
18232THY    HM346276   7.256   0.259   7.036 -2.4846 -0.6725  0.4262
18232THY    CA646277   7.435   0.463   7.028  0.2846 -1.0428 -0.2791
18232THY    HA646278   7.381   0.454   7.122  3.0093  0.5377 -1.4246
18233THY      O46279   3.699   5.100   2.689 -0.2618  0.0624  0.3894
18233THY     HO46280   3.743   5.048   2.619 -1.0311 -0.7628  0.8264
18233THY    CA146281   3.800   5.123   2.782  0.5625  0.2515 -0.6242
18233THY    CA246282   3.813   5.250   2.849 -0.0426 -0.9578  0.4295
18233THY    CP146283   3.703   5.362   2.836  0.5638  0.1691  0.4720
18233THY    HP146284   3.627   5.315   2.771 -0.6713  1.7472  0.1696
18233THY    CP246285   3.757   5.474   2.751  0.3368 -0.1256 -0.7128
18233THY    HP246286   3.689   5.560   2.750  0.8503 -0.3505 -0.2988
18233THY    HP346287   3.768   5.440   2.647 -1.4018  0.1860 -2.3435
18233THY    HP446288   3.854   5.496   2.798  0.4794  1.4016 -4.0182
18233THY    CP346289   3.637   5.397   2.965  0.6058  1.0059 -0.2806
18233THY    HP546290   3.599   5.310   3.019 -0.1743  0.1725 -0.4852
18233THY    HP646291   3.552   5.466   2.961 -0.0561  2.3899 -0.9749
18233THY    HP746292   3.707   5.445   3.033  0.0248  0.3755  1.5310
18233THY    CA346293   3.924   5.269   2.933 -0.3563 -0.3425  0.0956
18233THY    HA346294   3.942   5.368   2.974  1.6310 -2.3314  0.6327
18233THY    CA446295   4.016   5.165   2.941 -0.7166 -0.1648  0.6351
18233THY    HA446296   4.109   5.176   2.997 -0.8027  0.0313  0.3819
18233THY    CA546297   4.006   5.047   2.873 -0.6427 -0.1799 -0.5543
18233THY    CM146298   4.100   4.928   2.896 -0.2156 -0.6553 -0.2142
18233THY    HM146299   4.042   4.837   2.883 -1.9565  1.0842  0.5917
18233THY    HM246300   4.151   4.918   2.992  0.9421 -1.2935 -0.7217
18233THY    HM346301   4.186   4.927   2.827  1.5238  1.3414  1.0881
18233THY    CA646302   3.899   5.028   2.789 -0.0944 -0.3685  0.1436
18233THY    HA646303   3.881   4.930   2.747 -1.4973  1.1454 -0.2816
18234THY      O46304   1.661   6.618   2.401 -0.6622  0.3232  0.9585
18234THY     HO46305   1.719   6.621   2.478  0.9761 -0.8498  0.9287
18234THY    CA146306   1.545   6.686   2.424  0.3324  0.4331  0.4536
18234THY    CA246307   1.415   6.620   2.406  0.2054 -0.6329 -0.8873
18234THY    CP146308   1.405   6.485   2.338  0.0169  0.5928  0.6051
18234THY    HP146309   1.494   6.437   2.381  0.7900 -0.2174  1.2577
18234THY    CP246310   1.429   6.503   2.182 -0.1131  1.1676 -0.5359
18234THY    HP246311   1.332   6.496   2.131  0.7248 -0.4017 -1.4086
18234THY    HP346312   1.476   6.410   2.148 -0.6031  3.2238 -1.5945
18234THY    HP446313   1.491   6.590   2.157 -1.1369  0.7533  0.0810
18234THY    CP346314   1.272   6.403   2.356  0.0600  0.3348 -0.0022
18234THY    HP546315   1.276   6.306   2.307  1.0366  0.4470 -0.0294
18234THY    HP646316   1.191   6.455   2.303  0.7275  0.7083  1.4732
18234THY    HP746317   1.260   6.387   2.464  0.9018  0.1265 -2.3371
18234THY    CA346318   1.300   6.696   2.441  0.3583  0.2180 -0.1980
18234THY    HA346319   1.201   6.652   2.438  0.4413  1.8453 -0.5875
18234THY    CA446320   1.317   6.820   2.491  0.5453  0.5265 -0.7772
18234THY    HA446321   1.230   6.878   2.520  1.5966 -0.0986  1.2182
18234THY    CA546322   1.440   6.888   2.504 -0.3832  0.4563  0.2768
18234THY    CM146323   1.453   7.028   2.558  0.2096 -0.8270  0.4489
18234THY    HM146324   1.467   7.094   2.472 -0.3713  0.6878  2.6527
18234THY    HM246325   1.544   7.031   2.619 -1.0712  1.3965 -1.7098
18234THY    HM346326   1.370   7.060   2.622  1.1907  0.7447 -0.0506
18234THY    CA646327   1.554   6.817   2.468  0.4887  1.0087  0.5426
18234THY    HA646328   1.653   6.861   2.475  1.6183 -0.2355 -1.6736
18235THY      O46329   0.717   5.654   7.412  0.1804  0.1918 -0.2321
18235THY     HO46330   0.741   5.629   7.321  2.1984  1.2770 -2.7271
18235THY    CA146331   0.695   5.787   7.415  1.2617 -0.1014  0.4321
18235THY    CA246332   0.664   5.853   7.528 -0.2529  0.1114  0.0755
18235THY    CP146333   0.667   5.788   7.668 -0.5216  1.3325 -0.4189
18235THY    HP146334   0.733   5.701   7.662  0.0504 -0.0217  0.0907
18235THY    CP246335   0.536   5.748   7.722 -0.0309 -0.2773  0.8391
18235THY    HP246336   0.491   5.671   7.658 -0.9397  2.5352 -1.1051
18235THY    HP346337   0.474   5.838   7.735  1.9249 -1.6781  2.4709
18235THY    HP446338   0.556   5.711   7.823 -0.8494 -1.1613 -2.2799
18235THY    CP346339   0.731   5.886   7.773  0.2900 -0.3748  0.8531
18235THY    HP546340   0.840   5.880   7.759  0.2770 -0.5422  1.0096
18235THY    HP646341   0.708   5.859   7.877 -0.1928 -0.0485  2.4251
18235THY    HP746342   0.685   5.985   7.772 -1.1681 -1.2692  0.1982
18235THY    CA346343   0.615   5.988   7.508  0.2385  0.4160  0.0512
18235THY    HA346344   0.570   6.037   7.594 -1.5867 -0.4994  0.0412
18235THY    CA446345   0.628   6.054   7.383 -0.2121 -0.2129  0.4791
18235THY    HA446346   0.606   6.160   7.372  2.2312  1.0465  1.2046
18235THY    CA546347   0.670   5.982   7.274 -0.1146 -0.4222  0.2203
18235THY    CM146348   0.662   6.037   7.132  0.7967 -0.0811  0.4974
18235THY    HM146349   0.750   5.993   7.084 -0.8571 -3.8200  0.7930
18235THY    HM246350   0.685   6.144   7.140  0.7113 -1.3856  0.6314
18235THY    HM346351   0.573   6.015   7.072  0.1204  1.3471 -0.8246
18235THY    CA646352   0.696   5.849   7.290 -0.6814 -0.5264 -0.1721
18235THY    HA646353   0.715   5.790   7.201  0.8690 -0.6898  0.5163
18236THY      O46354   7.466   2.584   3.787 -0.3240 -0.2107  0.8874
18236THY     HO46355   7.407   2.560   3.861 -0.0163 -0.3625 -0.4339
18236THY    CA146356   7.558   2.488   3.767  0.0514 -0.7908  0.7538
18236THY    CA246357   7.635   2.474   3.645 -0.0031  0.2304 -0.1880
18236THY    CP146358   7.617   2.572   3.531 -0.8351  0.2720  0.0127
18236THY    HP146359   7.521   2.624   3.543  0.4879  0.1385  2.6826
18236THY    CP246360   7.611   2.508   3.394 -0.1221 -0.0162 -0.6625
18236THY    HP246361   7.522   2.445   3.399 -0.0521  2.0072 -0.6404
18236THY    HP346362   7.702   2.456   3.360 -0.5421 -1.0287 -0.7669
18236THY    HP446363   7.592   2.588   3.321 -1.4092  0.0814 -0.8726
18236THY    CP346364   7.728   2.689   3.523  0.5069 -0.5502  0.2471
18236THY    HP546365   7.686   2.776   3.471 -0.0967  0.2871  0.4633
18236THY    HP646366   7.820   2.651   3.477  0.0151 -0.8901 -0.5600
18236THY    HP746367   7.754   2.722   3.624 -1.6140  0.3163 -0.6234
18236THY    CA346368   7.713   2.365   3.634 -0.4683  0.6592  0.2513
18236THY    HA346369   7.758   2.340   3.538 -1.1169  0.6752 -1.0549
18236THY    CA446370   7.740   2.277   3.743  0.2069  0.9441  0.3403
18236THY    HA446371   7.807   2.192   3.733  1.0178 -0.0469  1.0599
18236THY    CA546372   7.670   2.295   3.862 -0.4454  0.2749  0.3450
18236THY    CM146373   7.670   2.194   3.982  0.2798  0.6478  0.0165
18236THY    HM146374   7.643   2.098   3.937 -0.0472  2.6828 -0.9029
18236THY    HM246375   7.601   2.230   4.059  1.1148  1.3606  0.1280
18236THY    HM346376   7.769   2.166   4.021  0.3592  0.1036 -0.4773
18236THY    CA646377   7.576   2.394   3.871 -0.0680 -0.6002 -0.0200
18236THY    HA646378   7.519   2.406   3.962 -1.2984 -1.5729  2.3014
18237THY      O46379   6.888   1.288   7.562 -0.3647  0.2520 -0.0172
18237THY     HO46380   6.904   1.333   7.646  0.3802 -0.4651  1.1118
18237THY    CA146381   6.986   1.340   7.482 -0.1665  0.4171  0.3520
18237THY    CA246382   7.098   1.264   7.433  0.2930 -1.0656 -0.1919
18237THY    CP146383   7.106   1.113   7.484  0.0451  0.1987  1.0213
18237THY    HP146384   7.016   1.079   7.537 -0.3863 -1.0265  0.1692
18237THY    CP246385   7.228   1.109   7.581  0.5122 -0.2696 -0.5031
18237THY    HP246386   7.217   1.174   7.669 -1.3861 -0.3499 -0.6538
18237THY    HP346387   7.317   1.147   7.531  1.1905  0.3699 -1.2059
18237THY    HP446388   7.249   1.009   7.620  2.7249  0.8087  0.3207
18237THY    CP346389   7.137   1.021   7.366  0.0690  0.2109 -0.6649
18237THY    HP546390   7.055   1.023   7.293 -0.8465  1.1412  2.9556
18237THY    HP646391   7.146   0.919   7.406  2.6434  1.1173 -0.1555
18237THY    HP746392   7.237   1.037   7.326  0.9973  2.6664  0.1782
18237THY    CA346393   7.194   1.331   7.352  0.0955  0.3653 -0.5733
18237THY    HA346394   7.277   1.271   7.315 -0.1302  0.2763 -0.8301
18237THY    CA446395   7.176   1.465   7.313  0.2363  0.5974  0.2205
18237THY    HA446396   7.246   1.517   7.247 -1.5855 -0.1049  1.9443
18237THY    CA546397   7.067   1.540   7.360 -0.5120  0.8342  0.3052
18237THY    CM146398   7.043   1.674   7.315  0.5873 -0.5021 -1.0455
18237THY    HM146399   6.986   1.726   7.393  1.5701 -1.0566  0.9920
18237THY    HM246400   6.986   1.676   7.221 -0.6620  0.0847 -3.9064
18237THY    HM346401   7.133   1.736   7.310 -0.4433  2.3590  0.9128
18237THY    CA646402   6.969   1.472   7.435 -0.1454 -0.5511 -0.5243
18237THY    HA646403   6.884   1.530   7.469  0.4454  2.8406 -1.4060
18238THY      O46404   7.839   1.474   3.544  0.5846  0.3192  0.0574
18238THY     HO46405   7.825   1.518   3.459  1.1637  0.4524  0.5063
18238THY    CA146406   7.744   1.539   3.631 -0.9188  0.4996  0.2756
18238THY    CA246407   7.692   1.476   3.743 -0.2005 -0.2693 -0.1206
18238THY    CP146408   7.707   1.322   3.763  0.6881  0.8132  1.0928
18238THY    HP146409   7.743   1.284   3.667 -1.0056  0.6414 -0.1855
18238THY    CP246410   7.581   1.249   3.802  0.1695  0.2474  0.3226
18238THY    HP246411   7.507   1.264   3.722  0.0731  0.4011  0.6869
18238THY    HP346412   7.532   1.278   3.895  0.0279 -0.2980  1.9224
18238THY    HP446413   7.616   1.145   3.806  1.0788 -0.8409  0.5587
18238THY    CP346414   7.824   1.291   3.863 -0.6392 -1.1823 -0.0804
18238THY    HP546415   7.783   1.294   3.964  2.2565  0.1367 -1.3030
18238THY    HP646416   7.909   1.360   3.854  0.7546 -1.3946 -1.7557
18238THY    HP746417   7.868   1.191   3.859  0.6446  0.4112  0.3846
18238THY    CA346418   7.603   1.547   3.823 -0.8309 -0.4977  0.3581
18238THY    HA346419   7.555   1.493   3.904 -0.0904 -0.4266 -0.2090
18238THY    CA446420   7.572   1.675   3.784  0.2647 -0.2190 -0.3188
18238THY    HA446421   7.497   1.722   3.847 -0.5250  2.1163 -4.2246
18238THY    CA546422   7.625   1.740   3.677  0.6435  0.1104 -0.3400
18238THY    CM146423   7.616   1.889   3.649 -0.5352 -0.1365 -1.4970
18238THY    HM146424   7.657   1.946   3.733  0.2541 -0.8904 -0.9301
18238THY    HM246425   7.513   1.927   3.644  0.8225 -2.1062  2.4445
18238THY    HM346426   7.662   1.917   3.554 -1.8725 -0.5760 -0.7318
18238THY    CA646427   7.715   1.671   3.600  0.3264  0.1230  0.5519
18238THY    HA646428   7.755   1.710   3.507 -0.7036 -1.6341 -2.2903
18239THY      O46429   6.370   7.318   6.341  0.2265 -0.1746  0.1827
18239THY     HO46430   6.338   7.296   6.252 -1.9578  0.5509  0.1921
18239THY    CA146431   6.464   7.409   6.308  0.0658  0.5214  0.0316
18239THY    CA246432   6.573   7.430   6.392  0.6490  0.2381  0.5713
18239THY    CP146433   6.595   7.350   6.526 -0.2938 -0.2817  0.0056
18239THY    HP146434   6.531   7.263   6.545  0.0239  1.1165  0.0477
18239THY    CP246435   6.565   7.447   6.639 -0.0325 -0.1408 -0.2396
18239THY    HP246436   6.579   7.410   6.741 -0.0377  0.1706  0.6035
18239THY    HP346437   6.462   7.484   6.629  0.2427  2.6909  1.6111
18239THY    HP446438   6.627   7.537   6.630  3.6430 -0.0685 -2.5540
18239THY    CP346439   6.745   7.295   6.542  0.2343 -0.1549  1.1617
18239THY    HP546440   6.780   7.243   6.452  2.6635  0.6251  1.3201
18239THY    HP646441   6.742   7.228   6.629 -3.9174  0.9155  2.4273
18239THY    HP746442   6.815   7.374   6.571  0.6965  2.3924 -0.1041
18239THY    CA346443   6.670   7.523   6.351 -0.4927 -0.1755 -0.3512
18239THY    HA346444   6.755   7.537   6.418 -0.0242 -0.2932 -2.3650
18239THY    CA446445   6.650   7.590   6.233  0.0088 -0.3147  0.0994
18239THY    HA446446   6.721   7.667   6.207  2.9987  0.3993 -2.2312
18239THY    CA546447   6.543   7.573   6.154  0.3033 -0.1600  0.0846
18239THY    CM146448   6.511   7.655   6.031 -0.5711 -0.0620 -0.1709
18239THY    HM146449   6.434   7.611   5.966 -1.2847 -0.0054  0.9539
18239THY    HM246450   6.603   7.648   5.972 -1.0907 -1.2407  2.0575
18239THY    HM346451   6.485   7.760   6.050  0.9416 -0.5464  0.3153
18239THY    CA646452   6.451   7.473   6.186  0.2963 -0.1389  0.1885
18239THY    HA646453   6.365   7.447   6.124 -0.2355  0.8118 -0.3805
18240THY      O46454   9.163   8.523   2.146 -0.4372  0.2650  0.1310
18240THY     HO46455   9.230   8.516   2.216  1.0050 -1.1806 -1.7250
18240THY    CA146456   9.202   8.632   2.064 -0.4603 -1.0669 -0.8586
18240THY    CA246457   9.124   8.676   1.959 -0.1336 -0.2283 -0.2863
18240THY    CP146458   9.005   8.593   1.918  0.8226  0.2159  0.3990
18240THY    HP146459   8.987   8.501   1.975  1.0909  0.1884  0.3301
18240THY    CP246460   9.012   8.554   1.768 -0.1272  0.9378 -0.1083
18240THY    HP246461   8.920   8.504   1.737  1.2952 -1.8995 -1.1812
18240THY    HP346462   9.088   8.480   1.739  1.1759 -0.9017  1.8418
18240THY    HP446463   9.031   8.638   1.700 -1.2043  1.8971  0.9697
18240THY    CP346464   8.873   8.665   1.935  0.3585 -0.1289  0.2984
18240THY    HP546465   8.871   8.766   1.892  0.1997 -0.7268  0.0484
18240THY    HP646466   8.850   8.680   2.041  0.0711 -0.2655  0.8418
18240THY    HP746467   8.789   8.610   1.893 -0.2252  1.5640 -0.1700
18240THY    CA346468   9.156   8.794   1.911  0.3176 -0.4456  0.5979
18240THY    HA346469   9.095   8.833   1.830 -1.1290 -0.3077 -1.2413
18240THY    CA446470   9.268   8.863   1.958 -0.3173  0.0641 -0.0175
18240THY    HA446471   9.289   8.958   1.909 -0.4125  0.5261  0.2506
18240THY    CA546472   9.347   8.820   2.063 -1.0337  0.0554 -0.3696
18240THY    CM146473   9.443   8.900   2.138 -0.1940  0.6577 -0.8214
18240THY    HM146474   9.540   8.850   2.134  0.6497  0.3184  0.7587
18240THY    HM246475   9.412   8.924   2.240  0.3144  0.9668 -1.4632
18240THY    HM346476   9.466   8.995   2.088 -1.0191  1.2763 -0.2815
18240THY    CA646477   9.311   8.700   2.114  0.0712 -0.7989 -0.1041
18240THY    HA646478   9.355   8.677   2.211  0.6234 -0.2004  2.9314
18241THY      O46479   5.101   4.135   5.398 -0.5412  0.2613 -0.1906
18241THY     HO46480   5.149   4.198   5.454  1.0820  0.0793 -1.2010
18241THY    CA146481   5.000   4.092   5.476  0.0467  0.0946  1.4083
18241THY    CA246482   4.918   3.988   5.432 -0.7826 -0.3605  0.8254
18241THY    CP146483   4.954   3.915   5.296  0.5637  0.1956 -0.0656
18241THY    HP146484   4.977   3.988   5.218 -0.9950 -1.7022 -1.5121
18241THY    CP246485   4.833   3.842   5.240 -0.2976 -0.0423  0.0092
18241THY    HP246486   4.828   3.739   5.279 -2.4957  1.3823  0.5895
18241THY    HP346487   4.852   3.834   5.132 -0.2152 -0.1414  1.3214
18241THY    HP446488   4.745   3.906   5.256 -0.8694 -1.6921 -0.3024
18241THY    CP346489   5.071   3.812   5.321 -0.0028 -0.5692  0.5617
18241THY    HP546490   5.164   3.861   5.353  0.3503 -0.4300 -0.1777
18241THY    HP646491   5.102   3.744   5.241 -0.4036 -0.1063 -0.1868
18241THY    HP746492   5.041   3.744   5.402 -2.2615 -0.7714  1.2474
18241THY    CA346493   4.826   3.935   5.534  0.0351 -0.0633  0.9641
18241THY    HA346494   4.753   3.858   5.508  0.4129 -0.4535  0.7349
18241THY    CA446495   4.814   3.987   5.661 -0.3831  0.1577 -1.0886
18241THY    HA446496   4.733   3.954   5.725 -0.0052  0.7299 -0.9135
18241THY    CA546497   4.898   4.087   5.694 -0.1995 -0.3418 -0.4471
18241THY    CM146498   4.881   4.137   5.836 -0.1147  0.0406  0.3685
18241THY    HM146499   4.786   4.109   5.884  1.1490  2.6670  0.2871
18241THY    HM246500   4.891   4.245   5.848 -0.1505  1.0870  0.2642
18241THY    HM346501   4.956   4.088   5.900  0.8727 -1.1797  0.2187
18241THY    CA646502   4.992   4.141   5.607 -0.3423  0.5052  0.2812
18241THY    HA646503   5.045   4.229   5.643 -0.4523  1.3007  0.0265
18242THY      O46504   7.512   4.948   6.381  0.4670 -0.3355  0.0589
18242THY     HO46505   7.595   4.901   6.400  0.2076 -0.2572 -0.3727
18242THY    CA146506   7.417   4.911   6.475  0.4460 -0.5169 -0.4872
18242THY    CA246507   7.275   4.924   6.453  0.2124 -0.0333 -0.0976
18242THY    CP146508   7.221   4.983   6.325  0.6333 -0.1728  0.1893
18242THY    HP146509   7.292   5.040   6.265  0.3268 -0.9639 -0.2556
18242THY    CP246510   7.115   5.087   6.360 -0.2912  0.4420  0.3123
18242THY    HP246511   7.088   5.116   6.258 -1.3102 -0.0114 -1.9778
18242THY    HP346512   7.165   5.166   6.418  1.2381  1.3979 -1.2701
18242THY    HP446513   7.026   5.058   6.417 -1.1306  0.3845  2.5963
18242THY    CP346514   7.163   4.874   6.238  0.2997 -0.3148 -0.5547
18242THY    HP546515   7.150   4.910   6.135  1.0213  0.0259  0.7189
18242THY    HP646516   7.069   4.837   6.282  0.0083 -0.2379  0.2606
18242THY    HP746517   7.225   4.783   6.232 -1.6841 -0.8354 -1.9550
18242THY    CA346518   7.189   4.870   6.549  0.1548  0.4413 -0.5118
18242THY    HA346519   7.084   4.888   6.530  0.3858 -1.5759 -0.9443
18242THY    CA446520   7.242   4.822   6.667  0.3458  0.3319  1.1649
18242THY    HA446521   7.169   4.800   6.744 -1.1712 -1.6421 -1.2779
18242THY    CA546522   7.376   4.822   6.688 -0.0939 -0.1130  0.2296
18242THY    CM146523   7.435   4.763   6.812  0.7338  0.3593 -0.6118
18242THY    HM146524   7.544   4.754   6.800  0.7236 -0.8492  0.5310
18242THY    HM246525   7.381   4.669   6.829  0.2077  0.9312 -0.2152
18242THY    HM346526   7.420   4.829   6.898 -1.2663  1.9904 -3.0184
18242THY    CA646527   7.466   4.867   6.593  0.0450  0.1948 -0.0845
18242THY    HA646528   7.574   4.868   6.608 -0.0050  0.6175 -0.5178
18243THY      O46529   2.945   6.473   3.649 -0.4655  0.1367 -0.6988
18243THY     HO46530   2.886   6.440   3.719 -1.4574  0.0775  0.8372
18243THY    CA146531   3.024   6.371   3.617  0.7385 -0.0974 -0.0067
18243THY    CA246532   3.104   6.374   3.506 -0.5638  0.1523 -0.4023
18243THY    CP146533   3.119   6.496   3.410  0.3924  0.1633 -0.0592
18243THY    HP146534   3.049   6.566   3.458 -0.6890  2.6608 -2.6965
18243THY    CP246535   3.067   6.465   3.270  0.0501 -0.1970 -0.5699
18243THY    HP246536   3.125   6.386   3.222  2.2899  0.4707  0.5981
18243THY    HP346537   3.088   6.560   3.218  0.7543  0.4693 -0.3555
18243THY    HP446538   2.962   6.434   3.262  0.3922 -1.7464 -1.4357
18243THY    CP346539   3.256   6.551   3.415 -0.6200 -0.2498  0.0273
18243THY    HP546540   3.326   6.478   3.374  1.7565 -0.3533  2.2140
18243THY    HP646541   3.284   6.593   3.513 -0.3045 -0.7650  1.0673
18243THY    HP746542   3.275   6.628   3.340 -0.3112 -1.2075 -0.9626
18243THY    CA346543   3.178   6.253   3.490  0.0538 -0.2078 -0.0299
18243THY    HA346544   3.244   6.246   3.404 -0.3814 -0.5932  0.4771
18243THY    CA446545   3.169   6.154   3.584  0.2809 -0.0093  0.6987
18243THY    HA446546   3.244   6.076   3.592 -0.0150  0.8488  0.4801
18243THY    CA546547   3.093   6.157   3.698 -0.1093  0.4096  0.0512
18243THY    CM146548   3.106   6.053   3.808  0.3214  0.2211 -1.1281
18243THY    HM146549   3.186   5.980   3.790  0.5634  0.1208 -0.8409
18243THY    HM246550   3.008   6.008   3.829 -1.1693  0.0816  1.8483
18243THY    HM346551   3.142   6.106   3.896  0.4201 -0.7118  0.4009
18243THY    CA646552   3.012   6.265   3.713 -0.2000  0.6506  0.4156
18243THY    HA646553   2.954   6.273   3.804 -1.9561 -0.4233  0.6529
18244THY      O46554   3.074   7.067   2.435 -0.0123  0.7667 -0.3289
18244THY     HO46555   3.125   7.139   2.476 -2.5669 -0.8186  2.6710
18244THY    CA146556   2.983   7.135   2.363  0.2567 -0.6722 -0.1706
18244THY    CA246557   2.866   7.067   2.325 -0.2092  0.4030  0.2260
18244THY    CP146558   2.857   6.915   2.332  0.0509  0.5535  0.7955
18244THY    HP146559   2.954   6.871   2.360  1.3874 -4.0692  0.2651
18244THY    CP246560   2.838   6.847   2.196 -0.3716 -0.0493 -0.0167
18244THY    HP246561   2.733   6.859   2.169 -0.7884  1.7658  0.7797
18244THY    HP346562   2.860   6.740   2.209  0.6488 -0.5855  0.1141
18244THY    HP446563   2.911   6.892   2.129  1.3980  2.5479  1.2492
18244THY    CP346564   2.762   6.880   2.444 -0.3041 -0.4027  0.7242
18244THY    HP546565   2.659   6.910   2.421 -0.9905 -0.8832 -1.7816
18244THY    HP646566   2.795   6.913   2.543 -0.8976 -0.8817  2.9408
18244THY    HP746567   2.752   6.771   2.453  3.0970 -0.4335  0.3282
18244THY    CA346568   2.761   7.145   2.268  0.3895  0.0421  0.6637
18244THY    HA346569   2.681   7.095   2.215  1.6541 -3.6964  2.2355
18244THY    CA446570   2.778   7.285   2.242  0.6454  0.4256  0.0048
18244THY    HA446571   2.693   7.342   2.206  0.6518 -2.9882 -1.8750
18244THY    CA546572   2.896   7.350   2.279 -0.2406 -0.4986  0.4910
18244THY    CM146573   2.920   7.495   2.268  0.6313  0.2743 -0.4427
18244THY    HM146574   2.922   7.544   2.366  1.7872  0.1179 -0.1511
18244THY    HM246575   2.832   7.535   2.215  0.7185  0.3724 -0.1119
18244THY    HM346576   3.005   7.516   2.202 -1.1067 -1.9394  0.1567
18244THY    CA646577   2.996   7.273   2.340 -0.1519 -0.5474 -0.2053
18244THY    HA646578   3.085   7.320   2.379  0.5265 -1.2078 -0.9036
18245THY      O46579   3.032   6.802   6.411  0.0676 -0.0736 -0.0659
18245THY     HO46580   2.957   6.744   6.433 -1.6714 -0.4963  1.8728
18245THY    CA146581   3.147   6.750   6.443 -0.2976  0.2284 -0.6400
18245THY    CA246582   3.229   6.795   6.543  0.5347 -0.0797 -0.2954
18245THY    CP146583   3.189   6.930   6.610 -0.4369  0.6220 -0.5703
18245THY    HP146584   3.080   6.935   6.625 -0.5872 -0.0934 -1.3946
18245THY    CP246585   3.235   7.053   6.528  0.2018 -0.0703 -0.4202
18245THY    HP246586   3.330   7.038   6.476  0.4276 -0.9649  3.2138
18245THY    HP346587   3.236   7.144   6.589  0.1120  0.5246 -0.8144
18245THY    HP446588   3.154   7.079   6.459  1.0496 -0.2108  2.2015
18245THY    CP346589   3.253   6.951   6.743 -0.2969  0.4319  0.2140
18245THY    HP546590   3.238   6.860   6.801  1.5711 -1.7652 -1.6121
18245THY    HP646591   3.199   7.038   6.783  0.2072  0.1930  0.6469
18245THY    HP746592   3.361   6.969   6.736 -0.2680  1.9280  0.8256
18245THY    CA346593   3.335   6.715   6.587  1.1281  0.9862  0.6915
18245THY    HA346594   3.402   6.752   6.664  1.6649  0.3254  1.0997
18245THY    CA446595   3.355   6.591   6.525 -0.0898  0.3905  0.2138
18245THY    HA446596   3.438   6.527   6.555  0.7471  0.1486  1.1685
18245THY    CA546597   3.277   6.553   6.412 -0.0963 -0.0557  0.2727
18245THY    CM146598   3.306   6.433   6.324  0.5057 -0.4267  0.1157
18245THY    HM146599   3.212   6.395   6.283 -0.1973  1.2195 -0.0007
18245THY    HM246600   3.368   6.353   6.365  0.4360 -4.2706 -2.1548
18245THY    HM346601   3.360   6.467   6.235  1.3739 -0.6559 -1.7737
18245THY    CA646602   3.173   6.631   6.376 -0.9976  0.5546 -0.0931
18245THY    HA646603   3.107   6.593   6.299 -2.0346 -0.3485  3.2620
18246THY      O46604   8.855   1.550   1.840 -0.4117  0.0781  0.3496
18246THY     HO46605   8.904   1.513   1.915 -1.3207 -0.3145 -1.7996
18246THY    CA146606   8.951   1.614   1.759 -0.0392  0.9089  0.5065
18246THY    CA246607   8.929   1.735   1.690 -0.1665 -0.3630 -0.4674
18246THY    CP146608   8.795   1.803   1.708 -0.3601  0.0963 -0.4386
18246THY    HP146609   8.713   1.759   1.766  0.3666  2.0209  0.6335
18246THY    CP246610   8.737   1.820   1.570  0.5911  0.0007 -0.0571
18246THY    HP246611   8.638   1.865   1.562 -0.5284 -3.3860 -2.7138
18246THY    HP346612   8.739   1.723   1.519 -0.3236 -2.0886  0.9698
18246THY    HP446613   8.809   1.885   1.519 -0.7109  2.1187  3.2960
18246THY    CP346614   8.813   1.938   1.772  0.5441  0.2308 -0.9140
18246THY    HP546615   8.711   1.971   1.798  0.6718 -0.1741 -0.1775
18246THY    HP646616   8.865   2.012   1.709  2.0499  1.2443 -1.0695
18246THY    HP746617   8.866   1.941   1.868  0.2730  0.3823  1.8002
18246THY    CA346618   9.028   1.783   1.603  0.5388  0.4008 -0.3795
18246THY    HA346619   9.016   1.877   1.548  1.1083  1.4240  0.3073
18246THY    CA446620   9.150   1.716   1.590  0.9460 -0.0438 -0.2464
18246THY    HA446621   9.229   1.753   1.526 -0.2240 -0.7651  1.1179
18246THY    CA546622   9.165   1.597   1.662 -0.7131  0.8815 -0.5918
18246THY    CM146623   9.298   1.518   1.643  0.3985 -0.8425 -0.6333
18246THY    HM146624   9.377   1.568   1.699 -1.9437  2.6103 -0.4225
18246THY    HM246625   9.311   1.523   1.534 -0.7683 -0.9796 -0.0467
18246THY    HM346626   9.288   1.421   1.693 -2.1616  2.1821  0.9813
18246THY    CA646627   9.067   1.543   1.734  0.7380 -0.0997 -0.3666
18246THY    HA646628   9.083   1.445   1.777  0.0253  0.5910 -0.1857
18247THY      O46629   3.894   0.950   2.248  0.0718 -0.7117  0.1123
18247THY     HO46630   3.938   0.864   2.254 -0.0715 -0.7155  0.0386
18247THY    CA146631   3.765   0.916   2.249  0.1176  0.3859 -0.1475
18247THY    CA246632   3.658   1.007   2.265 -0.3577  0.3411  0.1105
18247THY    CP146633   3.678   1.162   2.271 -0.0530  0.4542 -0.3771
18247THY    HP146634   3.774   1.196   2.231 -0.9036  0.0546  1.7504
18247THY    CP246635   3.659   1.225   2.408  0.3974 -0.2669 -0.7967
18247THY    HP246636   3.699   1.162   2.488 -1.0357 -1.5139 -3.4731
18247THY    HP346637   3.553   1.208   2.430  0.3111 -0.0261 -0.0128
18247THY    HP446638   3.667   1.334   2.417  1.1037  1.0347 -0.9318
18247THY    CP346639   3.580   1.238   2.184  0.8437  1.3152  0.2934
18247THY    HP546640   3.481   1.250   2.229 -0.3627 -1.0270 -0.1144
18247THY    HP646641   3.572   1.180   2.091  0.1229  2.4597 -1.5212
18247THY    HP746642   3.618   1.339   2.162 -1.1098  1.7949  1.1962
18247THY    CA346643   3.525   0.950   2.273 -0.2517  0.0523 -0.2533
18247THY    HA346644   3.445   1.022   2.285  0.2621 -1.8748  0.7142
18247THY    CA446645   3.503   0.814   2.256 -0.8001 -0.8061 -0.2282
18247THY    HA446646   3.399   0.784   2.263 -1.0084  0.5841  0.7135
18247THY    CA546647   3.607   0.726   2.236 -0.1690 -0.4646 -0.6226
18247THY    CM146648   3.584   0.573   2.224  0.3716 -0.4165 -0.3022
18247THY    HM146649   3.599   0.547   2.330 -2.0837  0.2480  0.7019
18247THY    HM246650   3.653   0.523   2.155  0.1295 -1.8100  1.2008
18247THY    HM346651   3.480   0.555   2.196 -0.1153 -1.2018  2.9902
18247THY    CA646652   3.738   0.776   2.245 -0.2444  0.2609  0.6676
18247THY    HA646653   3.816   0.701   2.255 -0.6854  0.1952  0.1913
18248THY      O46654   2.047   4.930   4.247  0.3391  0.4170  0.2111
18248THY     HO46655   2.071   4.967   4.333 -1.6958  3.1679 -4.0789
18248THY    CA146656   2.118   5.003   4.155  0.3869  0.5836  1.3576
18248THY    CA246657   2.110   4.975   4.015 -0.2339 -0.0144  0.3065
18248THY    CP146658   2.040   4.851   3.966 -0.0891  0.8347  0.4971
18248THY    HP146659   2.027   4.776   4.045  0.1029  0.5567  0.1701
18248THY    CP246660   2.103   4.767   3.859 -0.5696 -0.2611  0.5097
18248THY    HP246661   2.206   4.740   3.887 -0.8804 -0.2858 -0.7910
18248THY    HP346662   2.112   4.822   3.765  2.0763 -0.5404 -0.2945
18248THY    HP446663   2.045   4.675   3.844 -0.6341  2.0966  0.0971
18248THY    CP346664   1.905   4.888   3.920 -0.0740 -0.5547  0.3087
18248THY    HP546665   1.910   4.930   3.819  0.5937 -1.4153 -1.7460
18248THY    HP646666   1.872   4.958   3.999 -0.0566  0.8312 -1.1846
18248THY    HP746667   1.841   4.800   3.910 -0.7850 -0.0578  0.7482
18248THY    CA346668   2.194   5.056   3.928  0.0157 -0.0181 -0.7065
18248THY    HA346669   2.203   5.026   3.823  0.0852 -0.4853  0.8857
18248THY    CA446670   2.249   5.180   3.969  0.7434  0.1978  0.2478
18248THY    HA446671   2.293   5.248   3.897 -0.6600  0.3198  1.3319
18248THY    CA546672   2.239   5.211   4.105 -0.1745  0.0363  0.0919
18248THY    CM146673   2.304   5.347   4.156 -0.2961  0.9653 -0.2370
18248THY    HM146674   2.343   5.393   4.064 -4.3947 -0.9113 -0.0413
18248THY    HM246675   2.380   5.346   4.234  1.9618 -1.0429 -2.8903
18248THY    HM346676   2.219   5.404   4.197 -1.3347 -1.5771  0.1990
18248THY    CA646677   2.183   5.120   4.196 -0.2547  0.3651  0.3059
18248THY    HA646678   2.169   5.146   4.301 -2.4971  0.6450 -1.6359
18249THY      O46679   4.258   6.476   2.330  0.9108 -0.3066  0.1083
18249THY     HO46680   4.207   6.507   2.253  0.2329  0.0935 -0.0040
18249THY    CA146681   4.332   6.584   2.366 -0.2584  0.2910  0.4534
18249THY    CA246682   4.393   6.589   2.494  0.5501 -0.0101  0.2947
18249THY    CP146683   4.395   6.460   2.580  1.1634  0.0220 -0.1809
18249THY    HP146684   4.381   6.367   2.524 -1.6012  2.2031 -1.2227
18249THY    CP246685   4.270   6.470   2.678  0.4082  0.5225  0.3500
18249THY    HP246686   4.172   6.484   2.631 -1.1131  3.8586  2.0071
18249THY    HP346687   4.285   6.550   2.751 -0.2041  0.2539  0.7162
18249THY    HP446688   4.266   6.370   2.724 -1.2071  0.9724  0.5813
18249THY    CP346689   4.520   6.430   2.656 -0.5648 -0.3125  0.4067
18249THY    HP546690   4.522   6.334   2.709 -0.3404 -1.0214  0.0080
18249THY    HP646691   4.543   6.512   2.725  0.0920  1.3559 -1.1198
18249THY    HP746692   4.605   6.432   2.586 -1.2273 -1.2722 -1.8426
18249THY    CA346693   4.476   6.705   2.522 -0.1010 -0.1413  0.2850
18249THY    HA346694   4.541   6.703   2.608 -1.1812  0.6866 -0.8242
18249THY    CA446695   4.491   6.808   2.428 -0.0175  0.5391 -0.5314
18249THY    HA446696   4.555   6.895   2.437 -1.6430 -0.0438  0.7788
18249THY    CA546697   4.420   6.799   2.305 -0.9727 -0.9569  0.0584
18249THY    CM146698   4.440   6.910   2.205  0.1978 -1.2984 -0.0513
18249THY    HM146699   4.494   6.994   2.249  1.0691 -1.0129 -0.7509
18249THY    HM246700   4.342   6.941   2.166 -0.0015 -2.0720 -1.5779
18249THY    HM346701   4.492   6.864   2.120 -0.3467 -0.3490 -2.5704
18249THY    CA646702   4.341   6.692   2.273  0.2411  0.0553  0.5659
18249THY    HA646703   4.297   6.682   2.174  0.8535 -0.4456  2.5019
18250THY      O46704   7.806   4.843   5.584  0.1765 -0.5328 -0.3378
18250THY     HO46705   7.834   4.927   5.543 -1.2615  0.9362  0.9402
18250THY    CA146706   7.841   4.745   5.505  0.0133  0.3606  0.2953
18250THY    CA246707   7.753   4.651   5.448  0.5961 -0.0666  0.0731
18250THY    CP146708   7.602   4.677   5.453  0.3736 -0.0844 -0.0654
18250THY    HP146709   7.594   4.781   5.487 -0.6126  1.5630 -0.6470
18250THY    CP246710   7.537   4.585   5.562  0.1431 -1.4674  0.0664
18250THY    HP246711   7.435   4.561   5.533 -0.7168  1.3114 -0.0190
18250THY    HP346712   7.535   4.643   5.655 -0.2469 -1.4720  0.0590
18250THY    HP446713   7.592   4.492   5.581 -1.4202 -2.1483 -1.0374
18250THY    CP346714   7.524   4.655   5.321 -0.0801 -0.8167  0.0726
18250THY    HP546715   7.476   4.557   5.308 -1.3078 -0.8783  0.6676
18250THY    HP646716   7.588   4.684   5.237  1.3695 -0.3450 -1.5586
18250THY    HP746717   7.435   4.719   5.325 -0.0712  2.6132  0.0765
18250THY    CA346718   7.804   4.540   5.380 -0.0651 -0.1885 -0.6360
18250THY    HA346719   7.736   4.467   5.337 -0.5212  0.8256 -0.8255
18250THY    CA446720   7.941   4.538   5.359 -0.4411 -0.4339  0.4803
18250THY    HA446721   7.974   4.455   5.296 -1.3751 -0.5871  0.2025
18250THY    CA546722   8.024   4.632   5.414 -0.7804  0.4784 -0.6621
18250THY    CM146723   8.175   4.619   5.400  0.9673 -0.4411 -0.3365
18250THY    HM146724   8.219   4.582   5.493  0.5314 -0.0702  0.0824
18250THY    HM246725   8.228   4.712   5.376 -0.7350  0.0468  0.7909
18250THY    HM346726   8.188   4.540   5.324  0.0946 -1.8818  0.8525
18250THY    CA646727   7.980   4.732   5.486  0.1067 -0.3460  0.6719
18250THY    HA646728   8.054   4.795   5.533  2.8591 -0.7270 -2.0207
18251THY      O46729   5.848   2.314   5.418  0.6528  0.0022 -0.4915
18251THY     HO46730   5.931   2.330   5.370 -0.2034 -1.1858  0.5680
18251THY    CA146731   5.884   2.248   5.533  0.5976  0.3764  0.2849
18251THY    CA246732   5.795   2.157   5.607 -0.5478  0.2843 -0.8803
18251THY    CP146733   5.649   2.155   5.588  0.4680  0.0551  0.2299
18251THY    HP146734   5.611   2.230   5.518  0.7230  0.5245  0.7979
18251THY    CP246735   5.575   2.156   5.723 -0.4472  1.2358 -0.5826
18251THY    HP246736   5.479   2.203   5.700  0.6635  0.7703  1.5548
18251THY    HP346737   5.627   2.217   5.797 -0.7012  1.7373 -0.9670
18251THY    HP446738   5.563   2.054   5.761 -1.4294 -0.2845 -1.0693
18251THY    CP346739   5.615   2.018   5.525 -0.1331  0.1044  0.1369
18251THY    HP546740   5.675   1.937   5.567 -0.6979  0.3945 -0.1369
18251THY    HP646741   5.645   2.036   5.421  2.2190  0.8156  0.7234
18251THY    HP746742   5.508   1.995   5.525 -0.4321  0.4615  1.4421
18251THY    CA346743   5.858   2.076   5.701  0.4753 -0.0160  0.2810
18251THY    HA346744   5.803   2.005   5.762 -3.3890 -2.2005  1.0861
18251THY    CA446745   5.992   2.084   5.730  0.6144  0.3254 -0.0027
18251THY    HA446746   6.041   2.027   5.808  1.1766  0.9908  1.3498
18251THY    CA546747   6.070   2.171   5.658  0.0131  0.1154  0.5869
18251THY    CM146748   6.215   2.178   5.683 -0.0834  0.1886  0.2526
18251THY    HM146749   6.242   2.279   5.715  1.0290  0.3661 -0.0890
18251THY    HM246750   6.267   2.167   5.587 -2.7388 -1.5521  1.6967
18251THY    HM346751   6.263   2.097   5.738  0.7494 -1.4804 -0.4509
18251THY    CA646752   6.023   2.245   5.554  0.3667  0.1069  0.3480
18251THY    HA646753   6.087   2.303   5.488  0.1175  0.5141  1.0940
18252THY      O46754   0.833   4.896   7.450 -0.3571  0.1143  0.4962
18252THY     HO46755   0.771   4.822   7.462  1.3992  2.2052 -0.8007
18252THY    CA146756   0.833   4.960   7.567 -0.3448  0.2981 -0.6084
18252THY    CA246757   0.960   5.011   7.611  0.5359 -0.2012  0.5055
18252THY    CP146758   1.084   5.011   7.519  0.1983 -0.4174  0.1158
18252THY    HP146759   1.051   5.016   7.414  2.1942 -1.0864  0.0425
18252THY    CP246760   1.148   4.878   7.515  0.5146 -0.1503 -0.2958
18252THY    HP246761   1.075   4.797   7.524  0.7517 -0.2230 -0.5183
18252THY    HP346762   1.225   4.864   7.591  0.5913  0.0666  1.1178
18252THY    HP446763   1.186   4.851   7.415  2.5105  0.4655  0.0698
18252THY    CP346764   1.184   5.123   7.541 -0.1034  0.2728  0.1109
18252THY    HP546765   1.135   5.220   7.534 -1.5010  0.0672 -0.5853
18252THY    HP646766   1.267   5.116   7.469 -1.7824 -1.6143 -1.7559
18252THY    HP746767   1.225   5.121   7.643 -1.7048  0.9597  1.1196
18252THY    CA346768   0.967   5.058   7.750 -0.1722  0.1457  0.3163
18252THY    HA346769   1.059   5.101   7.789  0.4271 -2.3531  1.4980
18252THY    CA446770   0.847   5.066   7.824 -0.6558  0.8761  0.2711
18252THY    HA446771   0.853   5.126   7.914 -1.9510  0.4082  1.1410
18252THY    CA546772   0.729   5.006   7.773  0.3325  0.3522 -0.6224
18252THY    CM146773   0.602   5.001   7.854 -0.0547  0.2255 -0.5631
18252THY    HM146774   0.622   5.033   7.957 -0.7866 -0.0775  0.9929
18252THY    HM246775   0.561   4.900   7.861  1.2961  0.1265 -1.1344
18252THY    HM346776   0.525   5.061   7.802 -0.0331  0.2761 -0.4913
18252THY    CA646777   0.720   4.956   7.646  0.5383  0.4905  0.0507
18252THY    HA646778   0.623   4.919   7.614 -0.2970  1.9757  0.8501
18253THY      O46779   5.371   4.454   6.278  0.0206  0.2322 -0.1380
18253THY     HO46780   5.369   4.358   6.291 -0.5770  1.8432  0.0633
18253THY    CA146781   5.368   4.502   6.400  0.8985 -0.0615  0.2055
18253THY    CA246782   5.432   4.616   6.441 -0.5549  0.2664  0.2823
18253THY    CP146783   5.527   4.692   6.340  0.1172  0.7687 -0.0662
18253THY    HP146784   5.524   4.657   6.236  2.2602  0.6840 -0.1020
18253THY    CP246785   5.674   4.682   6.383 -0.0334  0.3000  0.1728
18253THY    HP246786   5.701   4.579   6.408  0.8590 -0.3158  0.2480
18253THY    HP346787   5.691   4.747   6.469  0.9660 -0.7513  1.3501
18253THY    HP446788   5.738   4.715   6.301  0.2507  1.1398  1.7868
18253THY    CP346789   5.484   4.838   6.326 -0.9385 -0.0374  0.5070
18253THY    HP546790   5.377   4.839   6.301 -1.5989  2.5655  0.2753
18253THY    HP646791   5.533   4.896   6.246 -2.2802 -1.3960 -0.1507
18253THY    HP746792   5.490   4.890   6.422  1.5872 -0.3304  0.8772
18253THY    CA346793   5.409   4.650   6.578  1.1946 -0.0129  0.0485
18253THY    HA346794   5.463   4.739   6.609 -0.3482  1.2353  0.5913
18253THY    CA446795   5.324   4.583   6.666 -0.2538 -0.4145  0.1657
18253THY    HA446796   5.305   4.624   6.764  2.5250 -0.7121  2.5372
18253THY    CA546797   5.260   4.471   6.621 -0.4122  0.5328  0.3283
18253THY    CM146798   5.168   4.400   6.703 -0.0432 -0.4330  0.2362
18253THY    HM146799   5.215   4.317   6.758  0.4639  0.0925  0.8637
18253THY    HM246800   5.078   4.362   6.652  0.4771 -1.1068 -0.1178
18253THY    HM346801   5.132   4.468   6.781 -0.5794 -0.0030 -0.5195
18253THY    CA646802   5.285   4.430   6.488  0.5149  1.1716 -0.7388
18253THY    HA646803   5.228   4.348   6.446 -0.4081  0.8350  0.0598
18254THY      O46804   0.878   8.329   5.558 -0.0060 -0.0174  0.6048
18254THY     HO46805   0.944   8.262   5.580 -0.7513  0.3362 -0.0288
18254THY    CA146806   0.947   8.442   5.529  0.6468 -0.2590 -0.0044
18254THY    CA246807   0.893   8.564   5.551  0.1121  0.6086  0.3862
18254THY    CP146808   0.754   8.589   5.613 -0.3965  0.0553  0.0128
18254THY    HP146809   0.694   8.497   5.606  1.5225 -1.4631 -1.2072
18254THY    CP246810   0.672   8.697   5.540 -0.1089  0.2200  0.2504
18254THY    HP246811   0.651   8.659   5.440 -0.2203  0.3506 -0.0320
18254THY    HP346812   0.725   8.792   5.527 -2.8729 -2.3405  1.6172
18254THY    HP446813   0.575   8.712   5.590  0.0558  1.6620 -2.8226
18254THY    CP346814   0.759   8.633   5.760  0.5727  0.5761 -0.1050
18254THY    HP546815   0.817   8.562   5.820  0.0943  1.5379  0.3039
18254THY    HP646816   0.660   8.647   5.804  0.6760  0.0876  2.5240
18254THY    HP746817   0.807   8.731   5.760  1.9545  1.9948 -0.7422
18254THY    CA346818   0.981   8.675   5.534 -0.3390  0.3584 -0.1381
18254THY    HA346819   0.953   8.776   5.563  0.0732 -2.0036  0.7034
18254THY    CA446820   1.113   8.655   5.487  1.2018  1.0777 -0.2953
18254THY    HA446821   1.175   8.744   5.478 -0.9924 -1.1114  1.1210
18254THY    CA546822   1.153   8.525   5.461  0.1084  0.0436 -0.0660
18254THY    CM146823   1.302   8.498   5.427 -0.0661  0.3921  0.1272
18254THY    HM146824   1.363   8.465   5.512  0.0899  0.1369 -0.2409
18254THY    HM246825   1.342   8.591   5.385  1.4215 -2.4082 -1.6409
18254THY    HM346826   1.314   8.422   5.349 -0.2381  0.7796 -0.3026
18254THY    CA646827   1.077   8.421   5.478  0.0376 -0.3079  0.1776
18254THY    HA646828   1.110   8.326   5.436 -0.4344  0.9504 -0.5814
18255THY      O46829   2.834   7.092   6.092 -0.2328  0.1390 -0.1590
18255THY     HO46830   2.926   7.063   6.100 -0.5807 -2.9025 -2.5947
18255THY    CA146831   2.795   7.058   5.965 -0.2618  0.0463 -0.0423
18255THY    CA246832   2.659   7.054   5.924 -0.0038 -0.5268 -0.3087
18255THY    CP146833   2.547   7.098   6.026 -0.6632  0.2177  0.6009
18255THY    HP146834   2.598   7.141   6.113 -0.7919  0.7342 -0.2736
18255THY    CP246835   2.485   6.970   6.091 -0.6157  0.1121 -0.5845
18255THY    HP246836   2.568   6.910   6.130  0.0972 -0.6420 -0.0978
18255THY    HP346837   2.427   6.911   6.020 -2.9406  2.1304 -0.9146
18255THY    HP446838   2.419   6.998   6.174  0.8038  0.8507  0.7488
18255THY    CP346839   2.448   7.189   5.969  0.2767 -0.1302 -0.1733
18255THY    HP546840   2.372   7.217   6.043 -1.1326 -1.1628 -1.1148
18255THY    HP646841   2.392   7.151   5.882 -1.5064  1.0568 -0.3894
18255THY    HP746842   2.499   7.284   5.947  0.2307  1.1106  0.1512
18255THY    CA346843   2.624   7.019   5.794 -0.2111  0.1023 -0.3254
18255THY    HA346844   2.520   7.010   5.762  0.0274 -0.6728 -0.4074
18255THY    CA446845   2.727   7.014   5.702 -0.4259 -0.6285  0.6045
18255THY    HA446846   2.694   6.993   5.601 -2.3761  0.2196 -0.6603
18255THY    CA546847   2.862   7.019   5.735 -0.1937 -0.8630 -0.3974
18255THY    CM146848   2.969   7.001   5.633  0.8591  0.2754  0.1238
18255THY    HM146849   2.943   6.936   5.548  0.1720 -0.9329  1.9112
18255THY    HM246850   3.051   6.948   5.684 -0.2277  0.6455 -1.2704
18255THY    HM346851   2.999   7.102   5.602 -2.8777  0.1017  1.2967
18255THY    CA646852   2.895   7.044   5.870 -0.1362  1.3118 -0.2163
18255THY    HA646853   2.998   7.035   5.902  0.7452 -1.4543 -1.0238
18256THY      O46854   2.191   3.536   3.610  0.2740 -0.6852 -0.0434
18256THY     HO46855   2.124   3.597   3.643  0.7092  0.1290 -0.0018
18256THY    CA146856   2.291   3.615   3.564 -0.3029 -0.4708 -0.3058
18256THY    CA246857   2.359   3.589   3.449  0.7737 -0.4305 -1.2957
18256THY    CP146858   2.335   3.469   3.367  0.3168  0.5329  0.6358
18256THY    HP146859   2.262   3.403   3.415  0.0773  1.4037  1.5036
18256THY    CP246860   2.464   3.405   3.331 -0.1600 -0.6677 -0.2688
18256THY    HP246861   2.446   3.300   3.307 -1.2852  1.6618 -0.6642
18256THY    HP346862   2.527   3.396   3.420  1.7203 -1.7903  0.9003
18256THY    HP446863   2.516   3.455   3.248  0.6628  0.5502  0.9867
18256THY    CP346864   2.273   3.517   3.235  0.5751  0.1284 -0.0567
18256THY    HP546865   2.332   3.599   3.192  0.2649  1.8904  1.1483
18256THY    HP646866   2.175   3.563   3.255  0.3209  0.2199 -0.6210
18256THY    HP746867   2.260   3.437   3.161  0.4527  0.2215 -0.1229
18256THY    CA346868   2.466   3.680   3.411 -0.0478 -0.4537 -0.0515
18256THY    HA346869   2.526   3.653   3.324  3.2785  1.2985  1.1343
18256THY    CA446870   2.500   3.789   3.498  0.4477 -0.2096 -0.0745
18256THY    HA446871   2.569   3.867   3.467 -1.8818 -0.8382  1.8696
18256THY    CA546872   2.415   3.820   3.604  0.2108  0.0176 -0.0351
18256THY    CM146873   2.440   3.943   3.693 -0.3183  0.1241 -0.2258
18256THY    HM146874   2.424   3.932   3.801 -0.5941  0.0436 -0.6148
18256THY    HM246875   2.354   4.005   3.665 -0.2890 -0.2234 -0.3419
18256THY    HM346876   2.532   3.999   3.668 -0.9480  1.0196  1.2598
18256THY    CA646877   2.311   3.735   3.640 -0.5199 -0.1676  0.8580
18256THY    HA646878   2.244   3.756   3.723  1.1526  0.7319  2.9718
18257THY      O46879   8.169   0.567   5.821 -0.0569  0.2953 -0.3153
18257THY     HO46880   8.098   0.633   5.817  2.0854 -1.1407  2.1167
18257THY    CA146881   8.165   0.481   5.720  0.4809  0.9838 -0.1514
18257THY    CA246882   8.250   0.365   5.719  1.0016  0.6129  0.0138
18257THY    CP146883   8.349   0.335   5.835  0.3800 -0.2676 -0.2522
18257THY    HP146884   8.305   0.383   5.924  0.1597 -1.2556  1.4918
18257THY    CP246885   8.480   0.403   5.804  0.3914  0.2211  0.2406
18257THY    HP246886   8.466   0.501   5.758 -1.4319 -0.4645 -0.3008
18257THY    HP346887   8.529   0.333   5.735  0.4300 -0.1269  0.6069
18257THY    HP446888   8.546   0.403   5.892  1.3935 -0.5229  0.1973
18257THY    CP346889   8.369   0.190   5.871 -0.3364 -0.2547  0.0784
18257THY    HP546890   8.270   0.144   5.881 -0.1452  2.1602  0.0408
18257THY    HP646891   8.425   0.179   5.965  0.5279 -0.7672  0.0332
18257THY    HP746892   8.411   0.126   5.793 -0.9923 -0.7209  0.2099
18257THY    CA346893   8.232   0.277   5.609  0.4640  0.7100  0.2858
18257THY    HA346894   8.291   0.187   5.601  1.1408 -1.4405  0.8484
18257THY    CA446895   8.145   0.309   5.500  0.0341  0.3360 -0.1713
18257THY    HA446896   8.118   0.237   5.423 -2.6503  1.4628 -0.4793
18257THY    CA546897   8.074   0.432   5.501  0.2565  0.3118 -0.4157
18257THY    CM146898   7.982   0.464   5.388  0.0206  0.0966 -0.0464
18257THY    HM146899   7.982   0.574   5.378  1.0681  4.7134  0.5578
18257THY    HM246900   7.878   0.447   5.418 -0.3459  0.6756  2.6822
18257THY    HM346901   8.008   0.410   5.296 -0.3487  0.7202 -1.3266
18257THY    CA646902   8.080   0.520   5.607 -0.0000 -0.1995  0.9665
18257THY    HA646903   8.011   0.604   5.606  1.3008 -1.6877  2.0806
18258THY      O46904   3.823   8.981   5.678 -0.5444  0.0843 -0.2329
18258THY     HO46905   3.847   8.893   5.644 -0.6811 -0.3000 -0.1259
18258THY    CA146906   3.869   9.082   5.594  0.1818 -0.6383 -0.3944
18258THY    CA246907   3.800   9.119   5.479 -0.5507 -0.2217 -0.5707
18258THY    CP146908   3.675   9.041   5.436  0.1918  0.0703  0.2474
18258THY    HP146909   3.677   8.934   5.461 -1.9860 -0.2860  0.0643
18258THY    CP246910   3.633   9.050   5.288 -0.1368  0.2550 -0.3569
18258THY    HP246911   3.538   8.995   5.280 -1.5169  0.0470  1.9307
18258THY    HP346912   3.701   9.002   5.216  2.3649  0.8794  2.0622
18258THY    HP446913   3.626   9.151   5.245 -0.9370 -1.2746 -1.0165
18258THY    CP346914   3.552   9.095   5.515  0.5603  0.9981 -0.0229
18258THY    HP546915   3.459   9.047   5.484  1.1151  2.7757 -2.4250
18258THY    HP646916   3.549   9.204   5.506 -1.4365 -0.8780 -0.1785
18258THY    HP746917   3.560   9.072   5.622 -1.5624  1.3714  0.7934
18258THY    CA346918   3.847   9.226   5.402  0.5313  0.6217  0.6070
18258THY    HA346919   3.788   9.259   5.317 -0.6740  1.5311  0.9071
18258THY    CA446920   3.955   9.300   5.447 -1.2482 -0.4648 -0.0864
18258THY    HA446921   4.004   9.369   5.379  2.1013  0.0312 -1.7394
18258THY    CA546922   4.017   9.266   5.565  0.1195 -0.1194  0.5405
18258THY    CM146923   4.130   9.346   5.621  0.1969 -0.3220  0.3463
18258THY    HM146924   4.177   9.407   5.544 -1.5569 -1.0669  0.8120
18258THY    HM246925   4.202   9.284   5.675  3.5011 -1.2707  3.0439
18258THY    HM346926   4.104   9.416   5.701 -1.7191  0.1845 -0.8689
18258THY    CA646927   3.976   9.153   5.644 -0.0498  0.8427  0.2409
18258THY    HA646928   4.034   9.127   5.732  0.1517 -0.2011 -3.4919
18259THY      O46929   3.977   4.708   5.051  0.0873 -0.3645  0.6210
18259THY     HO46930   3.989   4.800   5.022 -1.9657  2.1700  1.8211
18259THY    CA146931   4.041   4.637   4.952  0.2318 -0.1262 -0.0161
18259THY    CA246932   4.001   4.502   4.925 -1.0835  0.3500 -0.1235
18259THY    CP146933   3.909   4.414   5.010  0.4831  0.0544 -0.0125
18259THY    HP146934   3.831   4.474   5.058  0.6993 -0.0682  0.3669
18259THY    CP246935   3.991   4.332   5.113 -0.6796 -0.3959  0.6787
18259THY    HP246936   4.062   4.395   5.168 -1.2027  0.2268  0.7344
18259THY    HP346937   4.052   4.260   5.057 -1.1608  0.8085 -0.7112
18259THY    HP446938   3.922   4.283   5.182  0.0118 -0.3321 -0.2321
18259THY    CP346939   3.815   4.313   4.933 -0.2198 -0.2247  0.0937
18259THY    HP546940   3.871   4.259   4.856 -0.1518 -0.6628  0.7742
18259THY    HP646941   3.742   4.372   4.877  0.2240 -2.4972 -1.3531
18259THY    HP746942   3.767   4.234   4.992  1.4474 -1.8906 -2.3084
18259THY    CA346943   4.058   4.434   4.808 -0.1300  0.7039 -0.3907
18259THY    HA346944   4.043   4.328   4.791  0.2607 -0.5282 -0.2589
18259THY    CA446945   4.138   4.508   4.720  0.4102  0.3020 -0.2624
18259THY    HA446946   4.187   4.457   4.638  2.0294  1.1917 -0.2157
18259THY    CA546947   4.169   4.643   4.752  0.1547 -0.4331  0.2960
18259THY    CM146948   4.256   4.728   4.663 -0.2265  0.6907 -0.4539
18259THY    HM146949   4.317   4.657   4.607  0.7247  1.1676 -0.0314
18259THY    HM246950   4.329   4.779   4.727 -1.1149  1.3636 -0.0078
18259THY    HM346951   4.193   4.797   4.605  2.1765  0.0082  1.3283
18259THY    CA646952   4.119   4.706   4.872 -0.0619  0.0037 -0.0619
18259THY    HA646953   4.156   4.806   4.894 -0.5102  0.1325  0.0779
18260THY      O46954   3.066   6.215   2.321 -0.3848  0.1066 -0.0683
18260THY     HO46955   3.027   6.304   2.330  1.5877  2.9701  0.6592
18260THY    CA146956   3.085   6.180   2.453  0.9371  0.7954 -0.0817
18260THY    CA246957   2.975   6.116   2.529 -0.2324  0.3343  0.1013
18260THY    CP146958   2.838   6.122   2.472 -0.1581 -1.0584 -0.5276
18260THY    HP146959   2.825   6.199   2.395 -2.4557  1.1599  1.4678
18260THY    CP246960   2.730   6.139   2.577  0.1953 -1.0605  0.1386
18260THY    HP246961   2.715   6.041   2.625 -1.7513 -1.1385  0.3582
18260THY    HP346962   2.634   6.181   2.543 -2.2335  2.5872 -1.8872
18260THY    HP446963   2.768   6.211   2.650 -0.7893  1.7617 -1.9825
18260THY    CP346964   2.807   5.981   2.398  0.7356 -0.7557  0.0103
18260THY    HP546965   2.871   5.976   2.309  2.6239  0.5630 -0.1283
18260THY    HP646966   2.700   5.991   2.376  0.8167 -1.3683 -0.4113
18260THY    HP746967   2.836   5.900   2.466  1.8322  0.8510  1.6765
18260THY    CA346968   3.000   6.063   2.651  0.3500  0.0433 -0.0894
18260THY    HA346969   2.923   6.024   2.717  1.4829  0.9071 -0.9364
18260THY    CA446970   3.129   6.076   2.700  0.1678 -0.1568 -0.5185
18260THY    HA446971   3.146   6.045   2.803  0.2663  0.5397  1.6256
18260THY    CA546972   3.234   6.137   2.632  0.3393  0.3287 -0.8044
18260THY    CM146973   3.372   6.147   2.678 -0.0410  0.0160 -0.4180
18260THY    HM146974   3.387   6.114   2.781 -1.3695  0.5373  0.5390
18260THY    HM246975   3.408   6.250   2.683 -0.3187 -0.3878 -0.2984
18260THY    HM346976   3.434   6.081   2.615 -1.7758 -1.3705 -0.8038
18260THY    CA646977   3.211   6.177   2.502 -0.1819  0.0637  0.1530
18260THY    HA646978   3.295   6.221   2.449 -0.5815  0.7592  1.8462
18261THY      O46979   2.549   3.510   4.590  0.3231 -0.1474  0.1857
18261THY     HO46980   2.575   3.550   4.675 -2.8194 -0.1861  2.7593
18261THY    CA146981   2.595   3.389   4.582 -0.4560 -0.3627 -0.3783
18261THY    CA246982   2.601   3.319   4.460  0.4802  0.3902 -0.4466
18261THY    CP146983   2.559   3.386   4.332  0.1678 -0.0225  0.4646
18261THY    HP146984   2.500   3.478   4.340  1.1719 -2.6283  1.4573
18261THY    CP246985   2.476   3.289   4.249  0.3388 -0.9885 -0.1879
18261THY    HP246986   2.416   3.234   4.323  2.3279  1.6182  0.9041
18261THY    HP346987   2.534   3.217   4.190 -2.7286 -2.3097 -1.7808
18261THY    HP446988   2.411   3.349   4.184  0.7746 -1.3310 -0.0821
18261THY    CP346989   2.676   3.439   4.249 -0.4462 -0.3671  0.4923
18261THY    HP546990   2.736   3.369   4.190 -0.6447 -1.4611  1.2193
18261THY    HP646991   2.744   3.502   4.308  0.0214 -1.5183  1.1039
18261THY    HP746992   2.634   3.520   4.187 -0.1804  0.6430  1.4244
18261THY    CA346993   2.654   3.188   4.468  0.5587  0.0067  0.2259
18261THY    HA346994   2.675   3.134   4.376  0.7211  1.1825 -1.8270
18261THY    CA446995   2.696   3.141   4.590  0.5190 -0.4812  0.4473
18261THY    HA446996   2.736   3.040   4.598 -0.6413 -0.5740 -0.0316
18261THY    CA546997   2.679   3.207   4.711 -0.2908 -0.0929  0.7892
18261THY    CM146998   2.710   3.138   4.843 -0.3001 -0.2674  0.3821
18261THY    HM146999   2.818   3.136   4.862 -0.4772  0.8842  0.7979
18261THY    HM247000   2.672   3.035   4.852 -2.6150  4.2555  1.3476
18261THY    HM347001   2.670   3.194   4.929 -1.8399  1.3732 -2.9241
18261THY    CA647002   2.622   3.333   4.705  0.0559 -0.3187  0.4420
18261THY    HA647003   2.599   3.384   4.798 -1.5464 -0.3716 -0.1187
18262THY      O47004   7.638   4.270   3.335 -0.5629 -0.5159  0.1396
18262THY     HO47005   7.588   4.352   3.353 -0.9890  1.7478 -0.5733
18262THY    CA147006   7.755   4.308   3.294  0.0545  0.2774  0.1850
18262THY    CA247007   7.856   4.209   3.253 -0.2710  0.8695  0.0711
18262THY    CP147008   7.830   4.061   3.252 -0.5210 -0.1134  0.1319
18262THY    HP147009   7.772   4.030   3.339 -1.3676 -1.1178 -1.2602
18262THY    CP247010   7.955   3.975   3.262 -0.2337  0.3873  0.2483
18262THY    HP247011   7.931   3.873   3.295  0.3281  2.0933  0.6361
18262THY    HP347012   8.026   4.018   3.334 -0.3499  2.4723 -2.7162
18262THY    HP447013   8.009   3.950   3.170 -2.0657 -0.9825  1.1825
18262THY    CP347014   7.737   4.024   3.142 -0.0327  0.8778 -0.7643
18262THY    HP547015   7.656   4.097   3.143  0.8670  0.3613  0.2797
18262THY    HP647016   7.689   3.928   3.163 -0.0515  1.0950 -0.7073
18262THY    HP747017   7.783   4.032   3.042  0.1398  1.0028 -0.1971
18262THY    CA347018   7.976   4.258   3.206 -0.3052  0.1543  0.4179
18262THY    HA347019   8.056   4.197   3.166 -0.5448  0.7011 -0.2685
18262THY    CA447020   8.002   4.394   3.188  0.1206  0.2389 -0.5592
18262THY    HA447021   8.095   4.421   3.141  0.8481  1.6224 -0.5551
18262THY    CA547022   7.907   4.489   3.229  0.2830  1.2072  1.6080
18262THY    CM147023   7.933   4.631   3.219  0.0015 -0.7405  0.3544
18262THY    HM147024   7.866   4.686   3.287 -1.3731 -2.4572  0.8821
18262THY    HM247025   7.898   4.673   3.124 -0.5675 -0.6350  0.1252
18262THY    HM347026   8.035   4.655   3.250 -0.1935  0.3250 -0.1083
18262THY    CA647027   7.780   4.446   3.276 -0.0917 -0.0315 -0.2408
18262THY    HA647028   7.702   4.521   3.283 -0.1274  0.1043 -0.2905
18263THY      O47029   5.137   0.071   4.243  0.0502  0.1312 -0.2806
18263THY     HO47030   5.085   0.032   4.171 -3.6515  2.0917  0.5647
18263THY    CA147031   5.076   0.194   4.275  0.2911 -0.6538  0.5689
18263THY    CA247032   5.141   0.286   4.358  0.1593 -0.2216  0.4092
18263THY    CP147033   5.270   0.240   4.428  0.0719  0.7500 -0.2669
18263THY    HP147034   5.330   0.193   4.349 -0.2126 -0.1784  0.8802
18263THY    CP247035   5.248   0.138   4.535 -0.0526 -0.1906 -0.5621
18263THY    HP247036   5.343   0.106   4.578  0.3033 -0.0940  0.5803
18263THY    HP347037   5.192   0.046   4.514  1.9651  0.5008 -2.0198
18263THY    HP447038   5.196   0.184   4.620  0.3836  0.5050 -1.3348
18263THY    CP347039   5.352   0.353   4.493  0.0371 -0.6999 -0.0135
18263THY    HP547040   5.440   0.315   4.546 -0.5763  0.2514 -0.1566
18263THY    HP647041   5.290   0.409   4.565 -0.7117  0.3040 -2.0043
18263THY    HP747042   5.395   0.413   4.413  1.3546 -1.4612 -1.8695
18263THY    CA347043   5.079   0.412   4.376 -0.6950  0.7047  0.5341
18263THY    HA347044   5.112   0.481   4.453 -1.5000  2.2813 -0.7457
18263THY    CA447045   4.961   0.444   4.311  0.5183 -0.2592  0.2822
18263THY    HA447046   4.908   0.532   4.347 -0.3543  0.4131 -0.5020
18263THY    CA547047   4.895   0.353   4.231 -0.0901  0.0363  0.0213
18263THY    CM147048   4.756   0.380   4.171  0.2055 -0.0589 -0.1942
18263THY    HM147049   4.758   0.469   4.108  1.6450  0.7757  0.4069
18263THY    HM247050   4.672   0.385   4.242 -1.9734 -2.4557 -0.7528
18263THY    HM347051   4.733   0.302   4.097  1.0435 -2.4865  1.7486
18263THY    CA647052   4.952   0.224   4.212  0.0108 -0.2029  0.5302
18263THY    HA647053   4.897   0.156   4.148 -0.9295  1.3865 -0.2591
18264THY      O47054   6.902   3.930   2.481 -0.0525  0.2870 -0.0622
18264THY     HO47055   6.941   4.018   2.497  0.6305  1.7842 -0.6103
18264THY    CA147056   6.910   3.878   2.607  0.5254 -1.1139  0.0035
18264THY    CA247057   6.908   3.737   2.631 -0.1463 -0.7353 -0.6387
18264THY    CP147058   6.866   3.630   2.530 -0.6231  0.4129 -0.4213
18264THY    HP147059   6.826   3.680   2.440  1.2651  1.1697  2.7482
18264THY    CP247060   6.761   3.537   2.581 -0.3584 -1.2815 -0.1912
18264THY    HP247061   6.796   3.460   2.651 -1.2056  1.6627  1.9635
18264THY    HP347062   6.736   3.467   2.501 -0.3681 -0.5356 -1.0591
18264THY    HP447063   6.685   3.593   2.635  0.9256  0.4230 -0.0053
18264THY    CP347064   6.985   3.554   2.474 -0.2659  0.0105  0.4497
18264THY    HP547065   7.042   3.515   2.559 -0.4218  0.4218  1.0924
18264THY    HP647066   7.048   3.624   2.418 -1.4038 -1.4484  0.3731
18264THY    HP747067   6.957   3.475   2.403  1.7893  0.3271 -0.6140
18264THY    CA347068   6.943   3.689   2.761  0.8666  0.6995 -0.1052
18264THY    HA347069   6.944   3.581   2.771  0.0896  0.5302 -0.1363
18264THY    CA447070   6.966   3.777   2.862  0.1835  0.0246  0.7048
18264THY    HA447071   6.981   3.742   2.963  0.2585 -0.1283  0.2845
18264THY    CA547072   6.963   3.916   2.835  0.2125 -0.1969  0.2137
18264THY    CM147073   7.028   4.016   2.930 -0.4781 -0.7151  0.0116
18264THY    HM147074   7.089   3.953   2.995 -0.4022  0.4936  1.2779
18264THY    HM247075   6.960   4.070   2.998  0.4382  0.8894 -0.7920
18264THY    HM347076   7.083   4.096   2.879  0.1606  0.3372  0.2764
18264THY    CA647077   6.945   3.968   2.707  0.6215  0.6159 -0.1643
18264THY    HA647078   6.950   4.076   2.695  1.1495  0.2162 -0.2296
18265THY      O47079   2.543   1.262   3.691  0.3829  0.1671 -0.0336
18265THY     HO47080   2.592   1.325   3.746  2.7996 -2.2682  0.3985
18265THY    CA147081   2.537   1.308   3.562  0.3373  0.2181 -0.0034
18265THY    CA247082   2.473   1.239   3.456 -0.0325 -0.0710  0.6291
18265THY    CP147083   2.413   1.102   3.486 -0.0738  0.2735  0.2480
18265THY    HP147084   2.415   1.090   3.595 -0.0270  0.0448 -2.4379
18265THY    CP247085   2.494   0.992   3.411 -0.1707  0.7968  0.2254
18265THY    HP247086   2.594   0.975   3.453  0.5058 -0.7620  0.1836
18265THY    HP347087   2.511   1.008   3.304 -5.7490 -0.3324  0.5715
18265THY    HP447088   2.430   0.904   3.414 -0.9895 -1.4455  0.6742
18265THY    CP347089   2.264   1.097   3.454 -0.4079  0.2877 -0.1341
18265THY    HP547090   2.243   1.085   3.347  0.1453 -0.1284  2.1843
18265THY    HP647091   2.206   1.182   3.493 -3.0189 -0.3122 -1.5102
18265THY    HP747092   2.218   1.009   3.501 -1.4120 -0.1141  0.1533
18265THY    CA347093   2.475   1.290   3.328 -0.2500 -0.3026  0.8027
18265THY    HA347094   2.449   1.226   3.245 -1.0333 -1.6928  2.8107
18265THY    CA447095   2.542   1.415   3.305 -0.7999  0.0590 -0.4038
18265THY    HA447096   2.563   1.447   3.203 -1.9544  0.1217  0.6406
18265THY    CA547097   2.593   1.487   3.409  0.1378  0.7676 -0.0065
18265THY    CM147098   2.649   1.628   3.375  0.3269 -0.1413  0.0698
18265THY    HM147099   2.698   1.669   3.464 -0.4645  0.6156 -0.5846
18265THY    HM247100   2.574   1.706   3.360  0.7556  0.1267  0.5387
18265THY    HM347101   2.722   1.629   3.293 -1.1976 -1.5644 -0.1578
18265THY    CA647102   2.588   1.435   3.540  0.2014 -0.0455  0.2614
18265THY    HA647103   2.630   1.491   3.623 -3.5237  1.4198  1.2243
18266THY      O47104   2.754   8.679   5.991 -0.3599 -0.3112  0.0788
18266THY     HO47105   2.753   8.750   6.059 -1.6859  0.8036 -0.9558
18266THY    CA147106   2.774   8.733   5.863  0.3679  0.3709 -0.0674
18266THY    CA247107   2.775   8.650   5.751 -0.3295  1.1866  0.9487
18266THY    CP147108   2.750   8.501   5.765  0.5041  0.0809  0.4338
18266THY    HP147109   2.695   8.486   5.859  0.2981 -0.2152 -0.7764
18266THY    CP247110   2.880   8.415   5.774 -0.7329  0.5326  0.8233
18266THY    HP247111   2.957   8.468   5.831 -0.2547  0.6136  0.0557
18266THY    HP347112   2.923   8.421   5.673 -1.6640  0.0680 -0.0454
18266THY    HP447113   2.867   8.314   5.814  0.0640  2.5969  1.4992
18266THY    CP347114   2.649   8.444   5.659  0.3204 -0.5947  0.2438
18266THY    HP547115   2.559   8.506   5.647  0.5435 -0.2706  0.6335
18266THY    HP647116   2.625   8.338   5.676 -0.8891 -2.2251  0.2169
18266THY    HP747117   2.687   8.457   5.557  0.3943 -0.5841  0.1154
18266THY    CA347118   2.806   8.708   5.624 -0.3925  0.0952 -0.8618
18266THY    HA347119   2.812   8.648   5.533  1.3410 -0.0694 -0.4909
18266THY    CA447120   2.829   8.848   5.616  0.2237  0.0782  0.0073
18266THY    HA447121   2.862   8.889   5.521 -0.0618 -0.0993 -0.1706
18266THY    CA547122   2.838   8.928   5.734 -0.4589  0.5807 -0.2289
18266THY    CM147123   2.896   9.077   5.722  0.7697 -0.2427  0.4708
18266THY    HM147124   2.848   9.134   5.642 -0.6158  0.2484  0.0621
18266THY    HM247125   3.003   9.071   5.703  0.8767  0.4629  0.0434
18266THY    HM347126   2.884   9.124   5.820 -0.7748  0.0239 -0.3936
18266THY    CA647127   2.803   8.875   5.858  0.5041  0.3356  0.9942
18266THY    HA647128   2.812   8.934   5.949  1.5109  0.3732  0.7903
18267THY      O47129   2.146   4.657   4.751  0.5298  0.0402 -0.1705
18267THY     HO47130   2.228   4.707   4.742  0.6010 -0.0089 -0.2942
18267THY    CA147131   2.119   4.613   4.628 -0.5744  0.5439 -0.2887
18267THY    CA247132   1.990   4.567   4.603 -0.7123  0.5575 -0.0887
18267THY    CP147133   1.887   4.552   4.707  1.3144 -0.4787  0.4450
18267THY    HP147134   1.943   4.520   4.796  0.7407 -0.0290  0.6626
18267THY    CP247135   1.779   4.449   4.681  0.4341  0.4936 -0.3473
18267THY    HP247136   1.832   4.358   4.652  2.3058  0.3212  0.7483
18267THY    HP347137   1.699   4.464   4.609 -0.9614  1.8211 -1.0900
18267THY    HP447138   1.745   4.428   4.784  2.0659  0.8868 -1.3130
18267THY    CP347139   1.817   4.688   4.721 -0.3795 -0.1527 -0.4956
18267THY    HP547140   1.893   4.757   4.761 -1.2085  0.2278  0.2117
18267THY    HP647141   1.734   4.680   4.791 -0.2333  0.4941  2.4174
18267THY    HP747142   1.778   4.726   4.626 -0.9959  1.4176  3.2531
18267THY    CA347143   1.975   4.533   4.460  0.4849  0.1182  0.6892
18267THY    HA347144   1.883   4.488   4.423  0.5823  0.9142 -0.1813
18267THY    CA447145   2.068   4.562   4.364  0.3358  0.3428  0.1010
18267THY    HA447146   2.046   4.546   4.259 -1.4207  0.4756  1.3074
18267THY    CA547147   2.194   4.609   4.400  0.6442 -0.0423 -0.0208
18267THY    CM147148   2.300   4.619   4.302  0.2954 -0.2773 -0.7825
18267THY    HM147149   2.366   4.532   4.307  1.4709  0.5236  0.1213
18267THY    HM247150   2.372   4.699   4.326  0.5841 -0.5595 -0.9555
18267THY    HM347151   2.259   4.639   4.202  0.0643  0.2724  1.8256
18267THY    CA647152   2.222   4.634   4.531  0.1517 -0.5193  0.2384
18267THY    HA647153   2.323   4.662   4.558 -0.2932  1.6185 -0.0503
18268THY      O47154   3.696   1.773   6.532  0.3464 -0.9631  0.0743
18268THY     HO47155   3.648   1.846   6.490  1.2290  1.4777  2.2015
18268THY    CA147156   3.720   1.808   6.658  0.4755  1.1110 -0.0293
18268THY    CA247157   3.767   1.720   6.754  0.1272 -0.2514  1.1845
18268THY    CP147158   3.779   1.570   6.710 -0.1556 -0.2143  0.1246
18268THY    HP147159   3.797   1.558   6.602 -0.9941 -0.3838  0.3859
18268THY    CP247160   3.637   1.509   6.731  1.0884 -0.1368  0.4961
18268THY    HP247161   3.639   1.409   6.686 -1.0125  3.3282 -1.2923
18268THY    HP347162   3.563   1.572   6.682 -1.1307  3.0761  0.6102
18268THY    HP447163   3.620   1.504   6.839 -1.8156 -0.5658 -0.4740
18268THY    CP347164   3.891   1.492   6.764 -0.2592  0.7080  0.1679
18268THY    HP547165   3.984   1.520   6.712  0.4939  0.2260 -2.8532
18268THY    HP647166   3.868   1.389   6.734  1.5218  0.1013 -0.0975
18268THY    HP747167   3.901   1.513   6.871  1.3736  0.3795  1.3279
18268THY    CA347168   3.773   1.763   6.890 -0.9970  0.3807  0.8196
18268THY    HA347169   3.784   1.696   6.975 -1.8325  0.7999  1.2048
18268THY    CA447170   3.749   1.900   6.919 -0.6222 -0.6798 -0.3904
18268THY    HA447171   3.755   1.944   7.018  1.6295 -0.9958  0.1354
18268THY    CA547172   3.725   1.991   6.817 -0.3251 -0.3475  0.4104
18268THY    CM147173   3.729   2.136   6.841  0.1435 -0.3444  0.2049
18268THY    HM147174   3.780   2.181   6.755 -0.7215 -0.9460  0.0592
18268THY    HM247175   3.783   2.172   6.929  0.5975 -0.6679  0.3154
18268THY    HM347176   3.631   2.185   6.847 -0.5642  1.6776 -1.3192
18268THY    CA647177   3.708   1.945   6.685  0.3912  0.2366 -1.2001
18268THY    HA647178   3.684   2.020   6.610 -0.0029  0.5781 -0.9826
18269THY      O47179   2.469   5.602   3.124 -0.0435 -0.3246  0.9914
18269THY     HO47180   2.543   5.665   3.131  0.8649  5.4526 -0.0831
18269THY    CA147181   2.444   5.567   2.996  0.2076 -0.2637 -0.0183
18269THY    CA247182   2.424   5.431   2.952  0.3536 -0.7837 -0.0992
18269THY    CP147183   2.434   5.316   3.054 -0.9953 -0.0568  0.3619
18269THY    HP147184   2.478   5.357   3.146 -0.2184  0.0971 -0.7754
18269THY    CP247185   2.528   5.200   3.000 -0.5517  0.8337 -0.6137
18269THY    HP247186   2.630   5.234   2.978 -0.5616  0.0321 -1.0873
18269THY    HP347187   2.493   5.139   2.916  1.0036  0.4456 -1.0223
18269THY    HP447188   2.549   5.140   3.090  1.6245  1.3426  0.7894
18269THY    CP347189   2.298   5.261   3.087  0.0488 -0.0002  0.7737
18269THY    HP547190   2.218   5.336   3.089 -0.6443 -1.7852  0.1334
18269THY    HP647191   2.291   5.190   3.170  0.0004  0.8267  1.7225
18269THY    HP747192   2.260   5.196   3.007 -2.7500  1.7823  0.0142
18269THY    CA347193   2.394   5.410   2.813  1.1345  0.3275  0.4888
18269THY    HA347194   2.369   5.311   2.776 -0.1963  3.2988 -0.4135
18269THY    CA447195   2.391   5.513   2.729 -0.6444  0.9362 -0.2433
18269THY    HA447196   2.385   5.499   2.622  3.1761  0.4457  0.7036
18269THY    CA547197   2.408   5.643   2.773  0.1649  0.4679 -1.3151
18269THY    CM147198   2.401   5.759   2.685  0.3288  0.2338  0.4797
18269THY    HM147199   2.346   5.731   2.594  0.5839  0.4232 -0.6927
18269THY    HM247200   2.508   5.772   2.664  0.4210  1.3996  1.8745
18269THY    HM347201   2.372   5.858   2.723 -1.7307 -1.0232  0.4293
18269THY    CA647202   2.436   5.668   2.904  0.2815  0.1196 -0.7452
18269THY    HA647203   2.447   5.771   2.938 -1.7435 -0.8310 -0.1623
18270THY      O47204   7.037   4.991   7.433  0.4067 -0.6273 -0.0100
18270THY     HO47205   6.985   4.950   7.362 -0.4766 -0.2398  0.4007
18270THY    CA147206   7.062   5.126   7.394  0.1125  0.1895  0.6955
18270THY    CA247207   7.091   5.228   7.489 -0.1811 -0.1790 -0.1698
18270THY    CP147208   7.109   5.187   7.635  0.3098 -0.3589  0.9254
18270THY    HP147209   7.108   5.079   7.654 -0.4760 -0.4377  0.9097
18270THY    CP247210   7.004   5.256   7.724 -0.6123 -0.2220  0.6117
18270THY    HP247211   7.004   5.365   7.727 -1.0751  1.0378  0.5861
18270THY    HP347212   7.015   5.211   7.823 -1.8608 -0.4627 -0.3057
18270THY    HP447213   6.903   5.224   7.695 -0.2239 -0.3099 -0.5881
18270THY    CP347214   7.247   5.226   7.698 -0.2207 -0.2050  0.6586
18270THY    HP547215   7.283   5.328   7.676 -0.5768  1.4766  1.1828
18270THY    HP647216   7.320   5.157   7.656  0.5353  0.9260  0.7345
18270THY    HP747217   7.255   5.209   7.806 -1.7971 -0.3731 -1.6144
18270THY    CA347218   7.111   5.361   7.441 -0.1594  0.1895 -0.1652
18270THY    HA347219   7.129   5.433   7.521  0.6940  0.6690 -0.8949
18270THY    CA447220   7.107   5.391   7.306 -0.3022 -0.3374 -0.4547
18270THY    HA447221   7.137   5.491   7.276  2.0287  0.7301 -0.7526
18270THY    CA547222   7.079   5.296   7.215 -0.0976  0.6828  0.4133
18270THY    CM147223   7.078   5.320   7.070  0.8950  0.5036  0.3759
18270THY    HM147224   6.971   5.302   7.051 -0.0450  4.5757  0.5904
18270THY    HM247225   7.156   5.253   7.033 -0.6805  0.6573 -1.6504
18270THY    HM347226   7.094   5.424   7.042  0.2488  2.3406  1.0232
18270THY    CA647227   7.064   5.162   7.261 -0.2998 -0.3995  0.1244
18270THY    HA647228   7.044   5.080   7.192  0.1167  1.0766 -1.2646
18271THY      O47229   5.192   3.220   4.812 -0.3448  0.0898 -0.1327
18271THY     HO47230   5.279   3.263   4.815 -0.5422 -0.6690  0.3302
18271THY    CA147231   5.174   3.177   4.686 -0.1009 -0.1616 -0.9092
18271THY    CA247232   5.130   3.052   4.643  0.8566 -1.2144  0.7182
18271THY    CP147233   5.119   2.943   4.756  0.2936  0.0689 -0.5972
18271THY    HP147234   5.189   2.962   4.838  0.8457 -0.6250  0.4626
18271THY    CP247235   5.159   2.797   4.719 -0.0834  0.4684  0.2211
18271THY    HP247236   5.264   2.795   4.686 -0.4001 -0.5686 -0.7353
18271THY    HP347237   5.084   2.748   4.656 -0.8012  0.9799  0.6528
18271THY    HP447238   5.164   2.740   4.813  4.7015  0.2117 -0.1844
18271THY    CP347239   4.975   2.958   4.807  0.0714 -0.4370  0.9088
18271THY    HP547240   4.896   2.945   4.732  0.7444 -1.0272  0.0586
18271THY    HP647241   4.960   3.058   4.849  2.1890 -0.0032  1.1092
18271THY    HP747242   4.953   2.881   4.882 -0.6263 -1.8443 -0.3196
18271THY    CA347243   5.116   3.013   4.509  0.0561  0.7244 -0.0974
18271THY    HA347244   5.087   2.913   4.479 -1.1898  2.6604 -0.3731
18271THY    CA447245   5.133   3.117   4.415 -0.2244 -0.5437 -0.2781
18271THY    HA447246   5.109   3.088   4.313 -2.2014  0.7112 -3.7400
18271THY    CA547247   5.185   3.243   4.452  0.0270  0.1982  0.0140
18271THY    CM147248   5.211   3.334   4.340 -0.1433  0.1903  0.2074
18271THY    HM147249   5.212   3.286   4.241  0.8607 -1.0824  2.6232
18271THY    HM247250   5.308   3.383   4.355  0.4472 -0.6526 -0.6751
18271THY    HM347251   5.135   3.413   4.336 -0.5800  0.5029 -0.1978
18271THY    CA647252   5.202   3.271   4.592 -0.0149  0.4206 -0.2134
18271THY    HA647253   5.233   3.369   4.629  1.2327  0.2266 -0.5109
18272THY      O47254   2.475   4.015   7.809 -0.2931 -0.2919 -0.2071
18272THY     HO47255   2.382   4.019   7.839 -1.1241 -2.5166 -1.1224
18272THY    CA147256   2.479   3.930   7.702 -0.3443 -1.1829 -0.0062
18272THY    CA247257   2.592   3.909   7.627  0.5234 -0.1841 -0.4926
18272THY    CP147258   2.714   3.998   7.666 -0.0222 -0.4237 -0.2352
18272THY    HP147259   2.685   4.070   7.744 -0.7034 -1.4678  0.6420
18272THY    CP247260   2.771   4.080   7.545 -0.0144 -0.3197 -0.3887
18272THY    HP247261   2.796   4.015   7.460  1.4500  0.2225 -0.5566
18272THY    HP347262   2.858   4.141   7.570 -0.5515 -0.3201  0.3914
18272THY    HP447263   2.694   4.153   7.517  0.2591  0.5094  0.2316
18272THY    CP347264   2.824   3.920   7.732  0.0979  0.7898  0.3808
18272THY    HP547265   2.890   3.980   7.795  0.5879  2.1472 -1.4857
18272THY    HP647266   2.880   3.863   7.656 -1.3384 -2.4379  2.9351
18272THY    HP747267   2.791   3.849   7.808  1.3165 -0.5895 -1.7804
18272THY    CA347268   2.585   3.802   7.533 -0.5269 -0.1737 -0.4594
18272THY    HA347269   2.678   3.780   7.480  0.0370 -0.7664  2.7239
18272THY    CA447270   2.471   3.729   7.522  0.2065  0.6629 -1.0218
18272THY    HA447271   2.461   3.646   7.454 -2.3100  0.7780 -0.8852
18272THY    CA547272   2.356   3.758   7.597 -0.6478  0.1910 -0.3790
18272THY    CM147273   2.231   3.676   7.581 -0.1191 -0.4703 -0.4193
18272THY    HM147274   2.172   3.682   7.674  0.9192  0.4528 -3.1793
18272THY    HM247275   2.254   3.569   7.578 -0.0499  0.8390 -0.4641
18272THY    HM347276   2.170   3.714   7.498 -1.2567  0.9976  1.1066
18272THY    CA647277   2.358   3.857   7.687 -1.2354 -0.6565 -0.4152
18272THY    HA647278   2.268   3.889   7.741  0.1543  1.0102  0.8856
18273THY      O47279   8.250   4.770   4.021 -0.1298  0.0849 -0.1327
18273THY     HO47280   8.305   4.835   3.976  1.5217  0.8625 -0.9407
18273THY    CA147281   8.174   4.702   3.929 -0.6044  0.2813  0.1587
18273THY    CA247282   8.178   4.564   3.913  0.3958  0.3779  0.6843
18273THY    CP147283   8.273   4.472   4.002 -0.3149 -0.1236 -0.6369
18273THY    HP147284   8.322   4.530   4.081  2.4560 -3.1025  1.4378
18273THY    CP247285   8.376   4.397   3.920  0.3822 -0.3301 -0.7238
18273THY    HP247286   8.340   4.333   3.838  0.2926 -1.2462  0.4631
18273THY    HP347287   8.453   4.349   3.980  1.5264  0.9619  2.4579
18273THY    HP447288   8.438   4.473   3.872 -1.0028  0.9367  1.3165
18273THY    CP347289   8.188   4.375   4.080  0.2685 -0.0668 -0.4594
18273THY    HP547290   8.114   4.424   4.144 -1.8495 -2.1903 -0.6766
18273THY    HP647291   8.248   4.327   4.158  0.1411 -0.3926 -1.1608
18273THY    HP747292   8.144   4.295   4.018 -0.0870  0.6832 -0.8545
18273THY    CA347293   8.102   4.506   3.812  0.4690  0.3547 -0.1337
18273THY    HA347294   8.098   4.398   3.801  0.6928  1.3344 -0.2603
18273THY    CA447295   8.043   4.582   3.723  0.3885  0.6636 -0.5112
18273THY    HA447296   7.995   4.541   3.634  2.9924 -1.7127  1.1820
18273THY    CA547297   8.047   4.718   3.727 -0.3649 -0.7194 -0.5139
18273THY    CM147298   7.971   4.797   3.622 -0.0486  0.4339  0.0455
18273THY    HM147299   7.864   4.775   3.628 -0.0945  1.5392  0.5421
18273THY    HM247300   7.998   4.776   3.518  1.1113  0.4826  1.1819
18273THY    HM347301   7.987   4.902   3.647  0.5013 -0.5750  0.2128
18273THY    CA647302   8.102   4.781   3.843 -0.6027 -0.1570 -0.0780
18273THY    HA647303   8.115   4.889   3.844  1.7376  3.1367 -0.2115
18274THY      O47304   3.755   2.183   3.553  0.3142 -0.3103  0.1598
18274THY     HO47305   3.716   2.094   3.546  2.0268  2.4649 -0.9437
18274THY    CA147306   3.876   2.160   3.497 -0.0102 -0.6229 -0.3876
18274THY    CA247307   3.943   2.260   3.427  0.2107  0.9431 -0.1813
18274THY    CP147308   3.882   2.403   3.418  0.8253 -0.0798  0.2282
18274THY    HP147309   3.827   2.432   3.508  0.4931  0.6054 -2.2471
18274THY    CP247310   3.803   2.426   3.286  0.4123  0.0024 -1.0394
18274THY    HP247311   3.705   2.376   3.278 -0.6507 -0.6890  1.0492
18274THY    HP347312   3.859   2.391   3.199  2.9700  0.1511  2.2397
18274THY    HP447313   3.798   2.534   3.267  0.6186 -2.2088 -1.3730
18274THY    CP347314   3.998   2.500   3.415 -1.0623  0.7455 -0.4652
18274THY    HP547315   4.080   2.463   3.477 -0.8866 -0.0416 -1.4362
18274THY    HP647316   3.966   2.598   3.453 -1.7821  0.7386 -0.6887
18274THY    HP747317   4.035   2.516   3.313 -2.7446  0.1577 -0.0767
18274THY    CA347318   4.064   2.226   3.356  0.2961 -0.4668 -0.3346
18274THY    HA347319   4.120   2.308   3.314  0.0880  3.9614  2.4021
18274THY    CA447320   4.114   2.091   3.358  0.3759  0.1111 -1.1779
18274THY    HA447321   4.203   2.068   3.300  0.1848 -1.8026  2.2143
18274THY    CA547322   4.040   1.994   3.430  0.6224 -0.3119  0.3518
18274THY    CM147323   4.089   1.854   3.430 -0.1528 -0.0566  0.7944
18274THY    HM147324   4.123   1.822   3.529  1.1979 -0.9558 -0.6997
18274THY    HM247325   4.175   1.849   3.362 -0.1280  0.0682 -2.2337
18274THY    HM347326   4.005   1.797   3.389 -0.0880  1.0542 -0.1281
18274THY    CA647327   3.927   2.033   3.498 -0.0709 -0.9589 -0.8475
18274THY    HA647328   3.871   1.953   3.546 -0.1649  0.4268  0.0153
18275THY      O47329   2.005   4.371   3.091  0.0543 -0.2058 -0.1180
18275THY     HO47330   2.046   4.316   3.022  0.6405  0.9517 -1.1732
18275THY    CA147331   1.993   4.290   3.199 -0.2983 -0.1220 -0.0452
18275THY    CA247332   1.877   4.270   3.273  0.8866 -0.9162  0.6613
18275THY    CP147333   1.743   4.320   3.220 -0.1568 -0.4745 -0.1541
18275THY    HP147334   1.748   4.364   3.119 -1.0282 -0.8251 -0.8104
18275THY    CP247335   1.693   4.435   3.303  0.6425 -0.2950  0.0782
18275THY    HP247336   1.770   4.510   3.324 -0.8612 -0.0044  1.5977
18275THY    HP347337   1.666   4.395   3.402  3.1753  0.4454  0.0336
18275THY    HP447338   1.605   4.491   3.268  0.8177 -1.5039 -0.3841
18275THY    CP347339   1.631   4.216   3.209  0.5477 -0.4006  0.3955
18275THY    HP547340   1.659   4.132   3.145 -3.3936 -1.5754 -0.2439
18275THY    HP647341   1.546   4.262   3.158 -0.3102  0.6796  0.0558
18275THY    HP747342   1.596   4.172   3.304  0.1198 -0.8705 -0.3009
18275THY    CA347343   1.874   4.188   3.389 -0.3199 -0.1525 -0.4824
18275THY    HA347344   1.777   4.178   3.436  0.1752  1.1992  0.6815
18275THY    CA447345   1.989   4.130   3.431 -0.1548 -0.3387 -1.0188
18275THY    HA447346   1.974   4.075   3.523  0.3626 -0.4703 -1.3860
18275THY    CA547347   2.106   4.146   3.357 -0.4066  0.0247 -0.0101
18275THY    CM147348   2.239   4.097   3.412 -0.2741  0.4857 -0.1524
18275THY    HM147349   2.325   4.092   3.344 -1.0910 -0.4832 -1.5616
18275THY    HM247350   2.232   3.992   3.445 -2.4251 -0.3851 -0.3277
18275THY    HM347351   2.260   4.145   3.509  0.7084  1.5989 -2.6508
18275THY    CA647352   2.109   4.233   3.240 -0.9366  0.1776  0.7359
18275THY    HA647353   2.201   4.253   3.186 -1.2175 -0.6230 -0.0868
18276THY      O47354   0.315   6.750   4.830  0.2074 -0.1140  0.8151
18276THY     HO47355   0.234   6.702   4.807 -1.6922 -0.6713  4.0322
18276THY    CA147356   0.365   6.695   4.947  0.8982 -0.0904  0.2696
18276THY    CA247357   0.441   6.768   5.040  0.1632 -0.2917 -0.3309
18276THY    CP147358   0.497   6.906   5.010  0.6758  0.0848 -0.0441
18276THY    HP147359   0.446   6.945   4.921 -0.1305  0.8855  0.7790
18276THY    CP247360   0.641   6.881   4.978  0.4443 -0.2179  0.6618
18276THY    HP247361   0.640   6.810   4.894 -0.0812  0.2879  0.0621
18276THY    HP347362   0.688   6.832   5.063 -0.9303  0.2030  0.0171
18276THY    HP447363   0.689   6.971   4.937 -0.2203 -1.3239  0.5381
18276THY    CP347364   0.469   7.007   5.125 -0.8240 -0.2042  0.0701
18276THY    HP547365   0.530   6.984   5.213 -0.3805 -0.5011  0.1078
18276THY    HP647366   0.364   7.001   5.157 -1.1631 -0.3949  3.3884
18276THY    HP747367   0.483   7.111   5.094 -1.6694 -0.8139  0.0110
18276THY    CA347368   0.480   6.701   5.163  0.0169 -0.6003 -0.5569
18276THY    HA347369   0.528   6.757   5.243 -3.3349  0.6165  0.8173
18276THY    CA447370   0.445   6.570   5.186  0.4614  0.6731 -0.6361
18276THY    HA447371   0.489   6.526   5.275  1.5281  0.8073  0.6240
18276THY    CA547372   0.367   6.500   5.094 -0.5672  0.1722  0.2216
18276THY    CM147373   0.338   6.350   5.120 -0.7971  0.1561 -0.1402
18276THY    HM147374   0.362   6.310   5.219 -3.6526  0.9256 -0.1954
18276THY    HM247375   0.401   6.295   5.049  0.0688  1.0415 -0.3041
18276THY    HM347376   0.231   6.330   5.108 -1.2100  1.1811  1.2706
18276THY    CA647377   0.321   6.567   4.982  0.0695  0.0896  0.3928
18276THY    HA647378   0.260   6.513   4.909  0.0953  0.2959  0.0805
18277THY      O47379   3.265   7.749   4.974 -0.1198  0.6717 -0.0127
18277THY     HO47380   3.298   7.829   4.931 -1.5910 -1.5365 -0.5165
18277THY    CA147381   3.205   7.678   4.872  0.2617 -0.2494 -0.3817
18277THY    CA247382   3.206   7.535   4.869  0.2944 -0.1659 -0.3512
18277THY    CP147383   3.280   7.443   4.970  0.3721  1.0322 -0.1367
18277THY    HP147384   3.321   7.496   5.057 -0.6300  2.5437 -1.7428
18277THY    CP247385   3.403   7.374   4.909  0.3818  0.3096 -0.2456
18277THY    HP247386   3.380   7.317   4.819 -0.2321 -1.4839  2.5968
18277THY    HP347387   3.452   7.311   4.984 -0.4274  2.8751  1.9707
18277THY    HP447388   3.471   7.455   4.878  0.7076 -1.9692 -1.3179
18277THY    CP347389   3.176   7.340   5.030  0.0862  0.5969  0.4055
18277THY    HP547390   3.084   7.398   5.042  0.8747  0.0491  1.8250
18277THY    HP647391   3.223   7.311   5.125  1.3196 -0.4756 -1.3224
18277THY    HP747392   3.150   7.256   4.965  0.0429  0.7152  0.3276
18277THY    CA347393   3.131   7.480   4.764  0.5016 -0.4669  0.4084
18277THY    HA347394   3.131   7.372   4.757  1.5829  0.7809  0.2973
18277THY    CA447395   3.061   7.565   4.668 -0.3977  0.4144  0.2758
18277THY    HA447396   3.003   7.508   4.596  0.6357  0.2464 -0.6199
18277THY    CA547397   3.065   7.703   4.675 -0.1365 -0.2015 -0.0835
18277THY    CM147398   2.984   7.781   4.580  0.4359 -0.7681 -0.7999
18277THY    HM147399   2.875   7.769   4.585  0.4672 -2.0537 -1.9392
18277THY    HM247400   3.011   7.760   4.475  0.0352 -1.0096 -0.1341
18277THY    HM347401   3.001   7.889   4.586 -3.4257 -1.0693 -0.0468
18277THY    CA647402   3.146   7.761   4.771  0.4150  0.5735 -0.0623
18277THY    HA647403   3.148   7.869   4.766  1.0702 -3.7158 -0.1290
18278THY      O47404   1.546   5.241   2.422  0.0948  0.1968  0.2704
18278THY     HO47405   1.461   5.198   2.443 -1.8555 -1.9609  2.7585
18278THY    CA147406   1.536   5.262   2.288  0.3588 -0.0128  0.2498
18278THY    CA247407   1.641   5.324   2.214  0.0835 -0.4642 -0.0745
18278THY    CP147408   1.768   5.361   2.291 -0.4334 -0.1132  0.5256
18278THY    HP147409   1.767   5.350   2.400  2.0227 -0.0264  0.6760
18278THY    CP247410   1.823   5.502   2.272  0.0666 -0.2591 -0.3076
18278THY    HP247411   1.888   5.518   2.358 -0.5737 -0.1877  2.4322
18278THY    HP347412   1.738   5.569   2.288 -3.0692 -0.4514 -3.8813
18278THY    HP447413   1.865   5.519   2.172  0.8062 -0.5004 -3.1132
18278THY    CP347414   1.883   5.272   2.246 -0.5531  0.4324 -0.2167
18278THY    HP547415   1.933   5.303   2.153  1.8099  1.7771  0.2226
18278THY    HP647416   1.834   5.176   2.224  1.3930 -0.2051 -1.1175
18278THY    HP747417   1.955   5.266   2.329 -0.7515  0.5409 -1.1958
18278THY    CA347418   1.630   5.337   2.075 -0.2840 -0.1714 -0.4477
18278THY    HA347419   1.710   5.389   2.023 -0.7048 -1.4598 -1.0486
18278THY    CA447420   1.515   5.289   2.010 -0.4084  0.3124  0.3939
18278THY    HA447421   1.500   5.305   1.904 -2.8126  0.2040 -1.9847
18278THY    CA547422   1.411   5.233   2.084 -0.0006  0.1325 -0.2884
18278THY    CM147423   1.283   5.181   2.025 -1.0042 -0.3937 -0.1081
18278THY    HM147424   1.218   5.143   2.105  1.1852  2.1291  1.1306
18278THY    HM247425   1.312   5.110   1.948 -0.8287  0.2533 -0.7457
18278THY    HM347426   1.232   5.258   1.966  0.8524 -1.0254  0.6804
18278THY    CA647427   1.425   5.222   2.222  0.6925 -0.3980  0.2754
18278THY    HA647428   1.350   5.172   2.283  2.2853 -0.9429 -3.0244
18279THY      O47429   3.623   1.946   6.329 -0.2553 -0.5022  0.2433
18279THY     HO47430   3.526   1.940   6.321 -0.4445  1.8723 -0.9687
18279THY    CA147431   3.653   2.051   6.256 -0.0551 -0.5548  0.0090
18279THY    CA247432   3.780   2.090   6.220 -0.5461  0.2025 -0.1780
18279THY    CP147433   3.902   2.015   6.270  0.2710 -0.0805  0.0246
18279THY    HP147434   3.877   1.912   6.301  1.7192 -0.9655 -0.6206
18279THY    CP247435   3.960   2.083   6.393 -0.0865 -0.1063  1.3159
18279THY    HP247436   4.021   2.006   6.443 -0.9308  0.1096  0.7662
18279THY    HP347437   3.887   2.103   6.472  0.7180  1.2256 -0.6475
18279THY    HP447438   4.004   2.179   6.366  1.3132  0.0844  0.7517
18279THY    CP347439   4.021   1.992   6.167  0.5014  0.2431 -0.5340
18279THY    HP547440   4.065   2.090   6.144 -0.9970  3.0995  0.9106
18279THY    HP647441   3.985   1.952   6.072  1.5827  0.2771 -1.6618
18279THY    HP747442   4.112   1.944   6.207  1.6321 -1.7190 -0.1669
18279THY    CA347443   3.798   2.202   6.138 -0.2520  0.4513 -0.0562
18279THY    HA347444   3.898   2.233   6.106 -1.0674 -2.5828 -0.1712
18279THY    CA447445   3.686   2.269   6.093 -0.3599 -0.1282 -0.1691
18279THY    HA447446   3.705   2.348   6.020  1.9883 -1.4927 -1.8533
18279THY    CA547447   3.559   2.233   6.134  0.2784 -0.2816  0.5179
18279THY    CM147448   3.445   2.315   6.094  0.3641  0.2951  0.2347
18279THY    HM147449   3.435   2.417   6.133 -2.8998 -2.0531  0.9818
18279THY    HM247450   3.358   2.258   6.127  0.4443 -0.3258 -0.2546
18279THY    HM347451   3.434   2.312   5.985  2.1052  0.0640  0.8584
18279THY    CA647452   3.540   2.124   6.217  0.6940 -0.6481  0.0961
18279THY    HA647453   3.442   2.113   6.265  0.6360 -0.5332  1.0483
18280THY      O47454   5.578   1.518   7.583 -0.3749  0.2940 -0.1583
18280THY     HO47455   5.551   1.445   7.525 -2.0753 -1.0322  1.4252
18280THY    CA147456   5.481   1.611   7.602 -0.3698  0.1723  0.4758
18280THY    CA247457   5.512   1.743   7.562  0.6595  0.6322  0.2385
18280THY    CP147458   5.650   1.781   7.532  0.1242 -0.2017 -0.2718
18280THY    HP147459   5.721   1.711   7.578 -0.5366  0.0312 -0.8019
18280THY    CP247460   5.706   1.908   7.590  0.2982  0.4125  0.3134
18280THY    HP247461   5.815   1.897   7.587  0.3416  1.4534  0.4036
18280THY    HP347462   5.666   1.923   7.691  0.2910  0.2601  1.4018
18280THY    HP447463   5.661   1.981   7.521 -0.7170  1.0213  0.2888
18280THY    CP347464   5.677   1.778   7.385  0.2977 -0.5356 -0.5169
18280THY    HP547465   5.776   1.818   7.358 -0.6603 -1.8201  1.1279
18280THY    HP647466   5.611   1.846   7.329  3.1406 -3.3593  0.1812
18280THY    HP747467   5.666   1.683   7.333 -1.3650 -3.4377  1.1149
18280THY    CA347468   5.408   1.839   7.571  0.5273  0.3596  0.1614
18280THY    HA347469   5.436   1.941   7.545  2.6864  1.7336 -0.0184
18280THY    CA447470   5.289   1.803   7.632 -0.4512  0.6125  0.2931
18280THY    HA447471   5.209   1.874   7.652  0.3953  1.7043  0.9760
18280THY    CA547472   5.256   1.671   7.655 -0.0970 -0.0797  0.7974
18280THY    CM147473   5.121   1.622   7.702  0.4905  0.0929 -0.3990
18280THY    HM147474   5.055   1.709   7.705 -0.5445 -2.6447 -0.9942
18280THY    HM247475   5.120   1.573   7.800 -0.3139  0.7590  0.8881
18280THY    HM347476   5.073   1.551   7.634  1.3386 -0.0222 -0.8770
18280THY    CA647477   5.351   1.571   7.628  0.7305  0.7681 -0.7872
18280THY    HA647478   5.322   1.467   7.642  0.9301  0.7254 -0.8493
18281THY      O47479   2.998   4.558   1.991  0.4566 -0.4342 -0.4561
18281THY     HO47480   3.002   4.627   2.059 -1.2487 -1.6386  0.9082
18281THY    CA147481   2.925   4.453   2.026  0.1373 -0.4345 -0.0851
18281THY    CA247482   2.882   4.356   1.934  0.5773  0.1140 -0.7776
18281THY    CP147483   2.911   4.377   1.781 -0.1740  0.2711  1.1142
18281THY    HP147484   2.922   4.483   1.757  0.1662 -1.9392  0.6307
18281THY    CP247485   2.815   4.323   1.670 -0.6247 -0.1781 -0.0383
18281THY    HP247486   2.714   4.355   1.699  0.1746  0.0383  2.5515
18281THY    HP347487   2.821   4.215   1.655  3.6748  1.0364 -0.1514
18281THY    HP447488   2.839   4.379   1.579 -0.1853  0.3847  0.7053
18281THY    CP347489   3.052   4.328   1.749  0.4835 -0.2023  0.2913
18281THY    HP547490   3.059   4.220   1.769  1.3209 -1.1018  0.1693
18281THY    HP647491   3.129   4.373   1.813  3.8067 -2.0344 -2.3640
18281THY    HP747492   3.071   4.351   1.644  0.0155 -0.5106 -0.6488
18281THY    CA347493   2.792   4.257   1.985 -0.5487  0.4522 -0.3650
18281THY    HA347494   2.764   4.175   1.918  2.2797  0.9772 -1.8866
18281THY    CA447495   2.750   4.254   2.119  0.0992 -0.2327  0.3648
18281THY    HA447496   2.684   4.175   2.154  0.5133  0.4925  0.3369
18281THY    CA547497   2.790   4.353   2.208  0.6049 -0.1623  0.1878
18281THY    CM147498   2.740   4.351   2.346  0.8774  0.3834 -0.3879
18281THY    HM147499   2.798   4.426   2.402  2.7777 -1.0312 -0.7293
18281THY    HM247500   2.761   4.259   2.400  1.7641 -1.5086 -1.3404
18281THY    HM347501   2.632   4.375   2.349  0.7931 -0.2839 -0.6811
18281THY    CA647502   2.885   4.445   2.157  0.4330 -0.7332  0.7258
18281THY    HA647503   2.903   4.522   2.230 -1.6265  0.3635  0.2439
18282THY      O47504   6.524   0.999   3.488  0.1299 -0.1495 -0.1324
18282THY     HO47505   6.532   1.080   3.434 -0.2817  0.6998  0.4922
18282THY    CA147506   6.386   0.996   3.511  0.3639  0.8144  0.2832
18282THY    CA247507   6.325   0.919   3.604 -0.2073  0.1557  0.0476
18282THY    CP147508   6.409   0.808   3.663 -0.5823 -0.1294 -0.0140
18282THY    HP147509   6.515   0.794   3.639 -0.6271 -0.4510  0.1890
18282THY    CP247510   6.351   0.662   3.635 -0.0914  0.0449  0.0755
18282THY    HP247511   6.295   0.645   3.542 -1.9044  1.0534  0.3039
18282THY    HP347512   6.273   0.638   3.708  0.5592  1.3830  1.8611
18282THY    HP447513   6.417   0.575   3.646 -0.6009 -0.5711 -0.3991
18282THY    CP347514   6.426   0.836   3.818  0.5811  0.0635 -0.3065
18282THY    HP547515   6.325   0.840   3.861  0.6103  0.0566  0.6368
18282THY    HP647516   6.465   0.937   3.833 -3.6476  0.0722  1.5528
18282THY    HP747517   6.496   0.768   3.868 -0.9669  1.3208 -1.0357
18282THY    CA347518   6.186   0.918   3.622  0.1374  0.5707 -0.1427
18282THY    HA347519   6.144   0.846   3.692  1.9953  1.3969 -0.4599
18282THY    CA447520   6.110   1.013   3.551  0.7526 -0.1752  0.2639
18282THY    HA447521   6.003   1.012   3.571  0.7086 -0.4118 -0.6010
18282THY    CA547522   6.177   1.105   3.463  1.1289 -0.6967  0.3073
18282THY    CM147523   6.103   1.207   3.390 -0.0081  0.3366 -0.7359
18282THY    HM147524   6.119   1.310   3.423 -3.0849  1.0356 -0.4062
18282THY    HM247525   5.998   1.189   3.415  0.6717  4.2663 -0.1576
18282THY    HM347526   6.127   1.202   3.283  0.1958  0.0908  2.9228
18282THY    CA647527   6.314   1.098   3.442 -0.5811 -0.2547  0.5347
18282THY    HA647528   6.362   1.167   3.374 -0.8052 -0.5171  0.4310
18283THY      O47529   1.824   3.983   4.882  0.5226  0.3179 -0.2663
18283THY     HO47530   1.800   3.954   4.971  0.4766  0.9506  1.5688
18283THY    CA147531   1.916   4.080   4.898  0.0568 -0.1620  0.8555
18283THY    CA247532   2.023   4.097   4.812 -0.2283 -0.3053  0.2535
18283THY    CP147533   2.031   4.002   4.686 -0.0461 -0.1308 -0.2572
18283THY    HP147534   1.954   3.924   4.686 -0.0658 -1.5112 -0.2674
18283THY    CP247535   2.165   3.939   4.687 -0.0868  0.2312 -0.4634
18283THY    HP247536   2.192   3.909   4.789 -1.1319  0.9287  0.8560
18283THY    HP347537   2.242   4.012   4.660 -0.0127 -0.7037 -0.8661
18283THY    HP447538   2.175   3.858   4.613 -2.1982 -1.3360  0.6040
18283THY    CP347539   2.020   4.096   4.564 -0.0018  0.0241 -0.0148
18283THY    HP547540   1.930   4.159   4.568  0.3474 -0.5620  0.5389
18283THY    HP647541   2.005   4.033   4.475  1.2477 -0.5932  0.5186
18283THY    HP747542   2.105   4.164   4.551 -0.3940  2.2219  0.9699
18283THY    CA347543   2.115   4.203   4.829 -0.2553 -0.4077  0.1664
18283THY    HA347544   2.206   4.214   4.771 -0.9160 -1.6563 -0.6743
18283THY    CA447545   2.099   4.294   4.935  0.0101  0.2133  0.6860
18283THY    HA447546   2.164   4.380   4.937 -0.6621 -0.4597  1.2216
18283THY    CA547547   1.976   4.287   5.011 -0.7883 -0.2084  0.3636
18283THY    CM147548   1.945   4.394   5.114 -0.1220  0.1167  0.0657
18283THY    HM147549   1.839   4.409   5.134  0.3502  1.7483  1.5290
18283THY    HM247550   1.976   4.489   5.070 -1.2651  1.3950  1.0611
18283THY    HM347551   2.007   4.386   5.205  1.7198 -1.0929 -0.1824
18283THY    CA647552   1.886   4.181   4.996  0.1732  0.3875 -0.0833
18283THY    HA647553   1.793   4.173   5.052  0.0605  0.0908 -0.9665
18284THY      O47554   5.775   6.771   6.911  0.1085 -0.3964 -0.7104
18284THY     HO47555   5.720   6.734   6.840 -0.2971 -1.4166  1.6336
18284THY    CA147556   5.742   6.905   6.905 -0.4740  0.2028 -0.1635
18284THY    CA247557   5.747   6.981   7.022  0.1459 -0.0928  0.4397
18284THY    CP147558   5.807   6.933   7.156  0.1204  0.3224  0.1301
18284THY    HP147559   5.864   6.843   7.130 -0.6348  0.3239 -0.3627
18284THY    CP247560   5.696   6.884   7.255 -0.4789 -0.0885  0.1996
18284THY    HP247561   5.632   6.821   7.194  0.7082  0.3618 -1.5125
18284THY    HP347562   5.642   6.964   7.307  1.9074  0.4380  1.5775
18284THY    HP447563   5.738   6.823   7.336  0.8319 -1.0045 -0.1584
18284THY    CP347564   5.906   7.029   7.222 -0.2659 -0.4146  0.3994
18284THY    HP547565   5.852   7.103   7.282  0.8963  0.0950  0.8475
18284THY    HP647566   5.966   7.091   7.154 -2.1767 -2.2224  0.3856
18284THY    HP747567   5.972   6.977   7.292 -0.8324  0.5330  0.9252
18284THY    CA347568   5.702   7.117   6.998  0.3923 -0.4649 -0.7050
18284THY    HA347569   5.698   7.177   7.088  0.8101 -0.2587 -0.9864
18284THY    CA447570   5.636   7.164   6.883  0.1008  0.0486 -0.4295
18284THY    HA447571   5.591   7.262   6.873  0.4730 -0.4218 -0.3040
18284THY    CA547572   5.631   7.086   6.772  0.3810  0.2320  0.4849
18284THY    CM147573   5.573   7.129   6.648 -0.1107 -0.5608 -0.3806
18284THY    HM147574   5.520   7.225   6.656 -1.9172 -2.0345 -1.1844
18284THY    HM247575   5.490   7.068   6.611 -1.2377  1.9078 -0.4956
18284THY    HM347576   5.656   7.133   6.578  1.3212  1.0190 -1.1997
18284THY    CA647577   5.692   6.959   6.777 -0.1513  0.0758 -0.4105
18284THY    HA647578   5.687   6.887   6.696 -0.1726  0.4858 -0.8767
18285THY      O47579   4.355   1.628   2.166  0.2450 -0.4369 -0.5225
18285THY     HO47580   4.280   1.618   2.228 -0.4176 -1.0672  0.3783
18285THY    CA147581   4.457   1.691   2.234 -0.0472  0.0585 -0.5526
18285THY    CA247582   4.548   1.777   2.165 -0.6716 -0.3605 -0.5794
18285THY    CP147583   4.528   1.798   2.013 -0.3146 -0.3735  0.0514
18285THY    HP147584   4.498   1.706   1.961 -0.7130 -0.5147  0.2585
18285THY    CP247585   4.660   1.813   1.945  0.1143  0.6995 -0.2746
18285THY    HP247586   4.645   1.804   1.837  1.4120  0.6030 -1.7134
18285THY    HP347587   4.734   1.736   1.972 -1.8130  0.5565 -2.2470
18285THY    HP447588   4.701   1.914   1.961  0.1020  0.2986 -0.2034
18285THY    CP347589   4.416   1.899   1.968 -0.1834 -1.4157 -0.4525
18285THY    HP547590   4.406   1.905   1.859  1.0550 -1.4744  1.9726
18285THY    HP647591   4.446   1.998   2.004  1.0287  0.8862 -1.5702
18285THY    HP747592   4.318   1.876   2.012 -0.2909 -1.4664 -0.0983
18285THY    CA347593   4.641   1.855   2.240  0.4717 -0.0568  0.3231
18285THY    HA347594   4.699   1.935   2.195  0.5414 -0.2926  0.1424
18285THY    CA447595   4.635   1.842   2.377 -0.0708  0.3449 -0.3103
18285THY    HA447596   4.701   1.903   2.437 -2.1292  0.6378  1.7801
18285THY    CA547597   4.554   1.756   2.446  0.3718 -0.5283  0.5007
18285THY    CM147598   4.541   1.773   2.599  0.1611 -0.0918  0.1399
18285THY    HM147599   4.632   1.729   2.641  0.7662 -2.4570 -1.0664
18285THY    HM247600   4.457   1.715   2.639  0.3043 -0.1176 -0.0844
18285THY    HM347601   4.537   1.878   2.631  0.3148  1.9007 -0.4195
18285THY    CA647602   4.459   1.680   2.376 -0.2564  0.2047 -0.0243
18285THY    HA647603   4.372   1.639   2.427 -0.9329  0.1488  1.2837
18286THY      O47604   7.989   0.855   5.816  0.3025  0.0970 -0.2961
18286THY     HO47605   7.942   0.852   5.901 -0.7386 -0.4720 -0.6822
18286THY    CA147606   8.064   0.968   5.813 -0.9007 -0.2570 -0.2595
18286THY    CA247607   8.175   0.986   5.726 -0.5886  0.0150 -0.4513
18286THY    CP147608   8.213   0.881   5.622 -0.4405  0.7563 -0.1669
18286THY    HP147609   8.166   0.786   5.653 -1.6051  0.9371  0.4526
18286THY    CP247610   8.364   0.850   5.616 -0.3071  0.7435  0.0505
18286THY    HP247611   8.431   0.935   5.598 -0.3494 -0.2986 -0.1200
18286THY    HP347612   8.377   0.793   5.523 -0.9902 -0.6867  2.1368
18286THY    HP447613   8.402   0.798   5.705  0.3410 -0.0668 -0.9046
18286THY    CP347614   8.156   0.906   5.480 -0.4726  0.0222 -0.0188
18286THY    HP547615   8.176   0.823   5.411  1.2117  1.3968 -0.8012
18286THY    HP647616   8.187   1.000   5.433 -2.7071  0.2163  0.8818
18286THY    HP747617   8.047   0.911   5.489 -0.5952 -0.4825 -1.2626
18286THY    CA347618   8.241   1.109   5.717 -0.1917  0.2341  0.1108
18286THY    HA347619   8.331   1.116   5.655 -0.4873 -0.2026  0.1153
18286THY    CA447620   8.192   1.215   5.795 -0.0154  0.2322 -0.4544
18286THY    HA447621   8.221   1.318   5.776  0.1856 -1.7589 -0.8226
18286THY    CA547622   8.091   1.185   5.888 -0.3947 -0.1113 -1.2441
18286THY    CM147623   8.037   1.303   5.970  1.1259  0.5988 -0.8315
18286THY    HM147624   7.949   1.277   6.030  0.3478 -0.4562 -0.6893
18286THY    HM247625   8.012   1.386   5.903  0.9604 -0.3864 -1.6600
18286THY    HM347626   8.119   1.351   6.024  0.3952 -2.1372  4.2147
18286THY    CA647627   8.025   1.069   5.903 -0.5195  0.5632  0.7053
18286THY    HA647628   7.944   1.054   5.973 -0.6257  0.6878  1.7582
18287THY      O47629   6.559   5.001   3.850  0.2992  0.0774 -0.2639
18287THY     HO47630   6.505   5.055   3.790  1.1755 -0.1355  0.4072
18287THY    CA147631   6.661   5.077   3.904  0.6915  0.5708  0.0011
18287THY    CA247632   6.775   5.018   3.952  0.0813 -0.6373 -0.0593
18287THY    CP147633   6.794   4.873   3.927  0.7240  0.8995 -0.2908
18287THY    HP147634   6.702   4.819   3.904  1.7521  1.3195 -2.3039
18287THY    CP247635   6.849   4.798   4.052 -0.0764  0.5519  0.8436
18287THY    HP247636   6.880   4.695   4.030 -0.2443  2.5739  0.3330
18287THY    HP347637   6.777   4.801   4.134  0.1387  0.7241  1.7236
18287THY    HP447638   6.945   4.839   4.085 -0.1426  3.4756 -1.1236
18287THY    CP347639   6.896   4.854   3.809  0.0559 -0.1653  0.7757
18287THY    HP547640   6.898   4.751   3.771  2.6288  3.0303 -0.5199
18287THY    HP647641   6.994   4.880   3.850  0.6428  0.1112 -1.5871
18287THY    HP747642   6.880   4.931   3.733  2.0330 -1.4135  0.0306
18287THY    CA347643   6.879   5.103   3.996  0.3104  0.9446  0.6962
18287THY    HA347644   6.968   5.068   4.048  0.9924 -0.2973  0.5311
18287THY    CA447645   6.856   5.236   4.004 -0.1057  0.3380 -0.0264
18287THY    HA447646   6.928   5.300   4.055 -2.5033 -0.3993  3.5279
18287THY    CA547647   6.738   5.291   3.951  0.5249 -0.5789  0.1121
18287THY    CM147648   6.713   5.439   3.964  0.2970 -0.8035 -0.2656
18287THY    HM147649   6.748   5.476   4.061  0.5112 -1.6912  1.9796
18287THY    HM247650   6.605   5.456   3.954  0.2003 -1.2439 -1.0672
18287THY    HM347651   6.768   5.490   3.884 -0.2730 -0.1006  1.5080
18287THY    CA647652   6.641   5.218   3.898  0.5055 -0.5554  0.2494
18287THY    HA647653   6.544   5.260   3.875  0.9252 -1.9510  0.4945
18288THY      O47654   1.930   6.887   5.017  0.3217  0.1683  0.6544
18288THY     HO47655   2.017   6.850   4.994 -0.4986 -1.0122 -0.6538
18288THY    CA147656   1.955   6.994   5.092  0.7747  0.1670 -0.4294
18288THY    CA247657   1.856   7.041   5.182  0.2776 -0.7525 -0.8349
18288THY    CP147658   1.725   6.962   5.213 -0.0988 -0.5002 -0.3276
18288THY    HP147659   1.717   6.886   5.134 -1.8720 -0.7752  0.1013
18288THY    CP247660   1.598   7.046   5.192 -0.2472  0.3395 -0.2548
18288THY    HP247661   1.594   7.103   5.099 -1.1846  1.4645  1.6136
18288THY    HP347662   1.594   7.110   5.281  1.2173  1.1974 -1.2728
18288THY    HP447663   1.511   6.979   5.187 -0.5055 -0.5682  0.1390
18288THY    CP347664   1.730   6.886   5.343 -0.0328 -0.4242 -0.2197
18288THY    HP547665   1.786   6.935   5.424 -0.4254 -0.1643 -0.2016
18288THY    HP647666   1.783   6.793   5.320 -1.0652 -0.5727 -0.7812
18288THY    HP747667   1.625   6.866   5.367 -0.2402 -3.0811 -3.1208
18288THY    CA347668   1.883   7.154   5.265  0.1913  0.1492  0.2232
18288THY    HA347669   1.819   7.177   5.349  0.9179  0.9237 -0.4989
18288THY    CA447670   2.009   7.217   5.246 -0.0312 -0.0811  0.3040
18288THY    HA447671   2.045   7.292   5.315  0.0771 -0.4270  0.5747
18288THY    CA547672   2.104   7.177   5.149  0.7658  0.7813 -0.3201
18288THY    CM147673   2.232   7.249   5.142  0.5577 -0.7234 -0.5768
18288THY    HM147674   2.295   7.222   5.227  1.0329 -0.0718  2.2685
18288THY    HM247675   2.212   7.357   5.138 -1.1611  1.2283 -0.7702
18288THY    HM347676   2.286   7.231   5.048 -1.1691 -2.0025  0.6061
18288THY    CA647677   2.070   7.064   5.063 -0.1084 -0.5757 -1.0658
18288THY    HA647678   2.145   7.029   4.993  1.6440  1.3297 -1.2979
18289THY      O47679   6.024   3.992   2.763  0.2857  0.2068 -0.0210
18289THY     HO47680   6.047   3.939   2.841 -0.0880 -0.0754 -0.6125
18289THY    CA147681   5.996   4.116   2.810  0.0442  0.2860 -1.0624
18289THY    CA247682   5.939   4.218   2.731 -0.2689 -0.3657 -0.0894
18289THY    CP147683   5.916   4.202   2.580  0.2819 -0.6454  0.4771
18289THY    HP147684   5.956   4.104   2.553  1.2209  3.1352 -0.3499
18289THY    CP247685   5.982   4.310   2.493 -0.0509 -0.3971 -0.3838
18289THY    HP247686   5.904   4.368   2.443  0.7767  0.0357  1.1537
18289THY    HP347687   6.040   4.275   2.407  1.1061  0.3000 -0.2294
18289THY    HP447688   6.040   4.381   2.552  0.6451  0.2617 -1.4740
18289THY    CP347689   5.766   4.200   2.551  0.4256 -0.1317  0.5695
18289THY    HP547690   5.722   4.116   2.608 -1.3421  0.5155  1.8818
18289THY    HP647691   5.743   4.173   2.448 -2.1685  0.2150  1.1726
18289THY    HP747692   5.704   4.288   2.569 -1.7431  2.2471 -1.2701
18289THY    CA347693   5.900   4.337   2.794  0.0918  0.6555  0.0232
18289THY    HA347694   5.849   4.410   2.731  0.5071 -2.1676 -1.9735
18289THY    CA447695   5.911   4.353   2.935 -0.1920 -0.3105  0.1249
18289THY    HA447696   5.872   4.445   2.978 -0.1156 -1.6469  0.8123
18289THY    CA547697   5.972   4.248   3.004 -0.0753 -0.1989  0.1017
18289THY    CM147698   5.996   4.272   3.152  0.0912  1.0606  0.2536
18289THY    HM147699   6.073   4.350   3.158  2.4462  1.3846 -1.9542
18289THY    HM247700   6.036   4.180   3.199 -0.5039  0.5152 -0.2917
18289THY    HM347701   5.903   4.309   3.196 -1.0967 -1.2285  0.1415
18289THY    CA647702   6.007   4.131   2.946 -0.4402  0.4609  0.1452
18289THY    HA647703   6.046   4.052   3.010  1.5558  0.5119  1.1051
18290THY      O47704   3.147   1.793   2.646  0.0687  0.3274  0.5997
18290THY     HO47705   3.070   1.846   2.673 -1.2973  1.3419 -1.7750
18290THY    CA147706   3.226   1.847   2.548  0.8144 -0.7896  0.6582
18290THY    CA247707   3.319   1.769   2.479 -0.6189 -0.8013  0.6723
18290THY    CP147708   3.348   1.627   2.531 -0.8682  1.2445 -0.7861
18290THY    HP147709   3.302   1.617   2.630 -0.5118  1.3924 -0.9784
18290THY    CP247710   3.501   1.602   2.549  1.0411 -0.3137 -0.3501
18290THY    HP247711   3.541   1.605   2.447 -0.6489 -1.0298  3.4697
18290THY    HP347712   3.517   1.509   2.606 -0.8784 -1.6793 -1.6044
18290THY    HP447713   3.537   1.687   2.607 -1.4972  1.0900 -0.1256
18290THY    CP347714   3.276   1.525   2.454 -0.3681 -0.3498  1.1845
18290THY    HP547715   3.287   1.429   2.505  0.9906 -0.0471  1.4779
18290THY    HP647716   3.322   1.511   2.356 -0.9875 -0.3582 -1.1677
18290THY    HP747717   3.167   1.537   2.459 -0.7923  0.5052 -2.2384
18290THY    CA347718   3.376   1.826   2.359  0.0584  0.1500  0.0106
18290THY    HA347719   3.443   1.766   2.298 -1.1571 -0.6353 -0.5847
18290THY    CA447720   3.338   1.951   2.317  0.2217  0.1207 -0.1278
18290THY    HA447721   3.373   1.989   2.222  0.2828 -0.2909 -1.1824
18290THY    CA547722   3.244   2.025   2.390  0.4550  0.9320  0.3787
18290THY    CM147723   3.199   2.153   2.328  0.4839  0.0741 -0.4158
18290THY    HM147724   3.093   2.148   2.299  0.4506 -0.5286  2.1648
18290THY    HM247725   3.251   2.174   2.234  3.5947  1.9734  0.9941
18290THY    HM347726   3.212   2.228   2.407 -1.1713  0.8774 -0.9230
18290THY    CA647727   3.187   1.969   2.502  0.4936 -0.0290 -0.1569
18290THY    HA647728   3.102   2.017   2.549  0.9429  0.3581  0.2726
18291THY      O47729   7.660   8.471   5.820 -0.2621 -0.9125 -0.4700
18291THY     HO47730   7.627   8.485   5.911 -4.0107 -2.0468 -0.7820
18291THY    CA147731   7.756   8.381   5.835 -0.7005 -0.1243 -0.1131
18291THY    CA247732   7.813   8.318   5.725 -0.4741  0.4518 -0.2892
18291THY    CP147733   7.761   8.352   5.586 -0.0907 -0.6252 -0.2250
18291THY    HP147734   7.654   8.371   5.591  0.2020 -1.9672  2.1087
18291THY    CP247735   7.766   8.236   5.487 -0.2870 -0.1436 -0.1113
18291THY    HP247736   7.735   8.143   5.535 -0.9753  0.0732  0.2228
18291THY    HP347737   7.873   8.227   5.463 -0.6216 -2.9042  1.9271
18291THY    HP447738   7.712   8.260   5.394 -0.4868  0.0912  0.3587
18291THY    CP347739   7.842   8.481   5.542  0.2529  0.3095  0.0677
18291THY    HP547740   7.777   8.541   5.477  0.5599 -0.9432 -0.9153
18291THY    HP647741   7.914   8.438   5.472 -1.1842 -1.0227 -0.2963
18291THY    HP747742   7.884   8.536   5.627 -0.9309  1.1358 -0.2530
18291THY    CA347743   7.917   8.226   5.745 -0.8313  0.2354 -0.1578
18291THY    HA347744   7.968   8.178   5.661 -1.4104 -0.1881 -0.0480
18291THY    CA447745   7.968   8.204   5.872  0.5196  0.0547 -0.2310
18291THY    HA447746   8.057   8.143   5.880  1.5467 -3.7644  0.5321
18291THY    CA547747   7.909   8.274   5.980  0.5634 -0.2201  0.2511
18291THY    CM147748   7.957   8.241   6.106  0.2218 -0.0558 -0.1452
18291THY    HM147749   7.995   8.139   6.119  1.7597  1.3776  0.5559
18291THY    HM247750   7.879   8.262   6.181 -0.0966 -1.0299  2.6216
18291THY    HM347751   8.037   8.312   6.131  1.1829  0.9805 -1.5550
18291THY    CA647752   7.800   8.359   5.968 -0.3576  0.3822  0.1359
18291THY    HA647753   7.764   8.413   6.055  1.2672  0.5278  1.0703
18292THY      O47754   5.105   1.424   3.550 -0.6260  0.3370 -0.2889
18292THY     HO47755   5.119   1.410   3.455 -1.0327  0.1490  0.4900
18292THY    CA147756   5.134   1.309   3.616 -0.0997  0.9181 -0.8230
18292THY    CA247757   5.215   1.308   3.737 -0.5520 -0.5475 -0.7806
18292THY    CP147758   5.276   1.440   3.791 -0.5308 -0.3784  0.3619
18292THY    HP147759   5.268   1.510   3.708  0.8758  1.2216  2.5537
18292THY    CP247760   5.422   1.424   3.833 -0.0298  0.3438  0.4975
18292THY    HP247761   5.426   1.354   3.917 -2.6096 -1.1779 -1.6814
18292THY    HP347762   5.469   1.520   3.856  0.4141 -2.4731  1.0441
18292THY    HP447763   5.476   1.388   3.744  2.4069  2.6533 -2.0960
18292THY    CP347764   5.198   1.500   3.905 -0.1111  0.2681 -0.7369
18292THY    HP547765   5.250   1.594   3.924  1.8104 -1.1469 -1.4381
18292THY    HP647766   5.194   1.442   3.998 -1.4133 -1.0110 -2.8477
18292THY    HP747767   5.091   1.516   3.885 -0.8124  3.1701 -1.1549
18292THY    CA347768   5.247   1.184   3.796  0.0703 -0.2873 -0.0997
18292THY    HA347769   5.301   1.173   3.889  0.5120 -0.1617  2.4289
18292THY    CA447770   5.194   1.071   3.730 -0.2035  0.0275  0.3305
18292THY    HA447771   5.217   0.977   3.778 -0.9968  2.5645  1.3415
18292THY    CA547772   5.122   1.073   3.619 -0.0395  0.1633 -0.2269
18292THY    CM147773   5.077   0.945   3.547  0.1534 -0.1734  0.3906
18292THY    HM147774   5.056   0.963   3.441 -1.0919  0.0806  0.4904
18292THY    HM247775   4.981   0.917   3.592  0.8422  0.8671 -0.3597
18292THY    HM347776   5.147   0.863   3.569  0.6922 -3.2078 -0.0631
18292THY    CA647777   5.083   1.194   3.560 -0.1993  0.3923 -0.0137
18292THY    HA647778   5.023   1.197   3.469  0.1911  0.1275  2.4291
18293THY      O47779   9.119   7.067   2.585 -0.1766  0.4587 -0.2627
18293THY     HO47780   9.091   7.013   2.509 -0.9045 -0.7793  1.7556
18293THY    CA147781   9.015   7.053   2.664 -0.3671 -1.0850  0.0471
18293THY    CA247782   9.012   7.106   2.794  0.3236 -0.1289  0.4940
18293THY    CP147783   9.132   7.181   2.847 -0.6586  0.3345  0.0995
18293THY    HP147784   9.218   7.172   2.779 -0.0655  1.1176 -0.2638
18293THY    CP247785   9.183   7.123   2.978  0.0593 -0.7486 -0.2303
18293THY    HP247786   9.269   7.177   3.016  0.1536  0.9247 -1.4731
18293THY    HP347787   9.219   7.022   2.953  0.6573  1.1931 -0.5399
18293THY    HP447788   9.099   7.134   3.048  0.8103  0.0654  0.3450
18293THY    CP347789   9.106   7.330   2.849 -0.4945 -0.0151 -0.3479
18293THY    HP547790   9.197   7.375   2.891 -0.6018  0.3096 -0.4309
18293THY    HP647791   9.019   7.358   2.910 -0.3850  0.6418 -1.4010
18293THY    HP747792   9.089   7.379   2.753 -0.5763  0.5614  0.8029
18293THY    CA347793   8.893   7.094   2.864 -0.4046  0.5599 -0.3693
18293THY    HA347794   8.886   7.123   2.968 -1.4911  0.2956  0.3549
18293THY    CA447795   8.788   7.021   2.816 -0.2567  0.0678 -0.4435
18293THY    HA447796   8.696   7.010   2.872  0.4915  1.4427  0.1093
18293THY    CA547797   8.794   6.971   2.684 -0.6254 -0.0241 -0.3546
18293THY    CM147798   8.679   6.887   2.628  0.5341 -0.2638  0.1919
18293THY    HM147799   8.716   6.784   2.626  0.8782 -0.5476  0.3184
18293THY    HM247800   8.642   6.911   2.527  1.2451 -0.7459 -0.6957
18293THY    HM347801   8.593   6.887   2.696 -0.3177 -1.3017  1.1456
18293THY    CA647802   8.911   6.984   2.608  0.4571  0.1749 -0.4702
18293THY    HA647803   8.918   6.953   2.504  0.0133  0.0026 -0.0141
18294THY      O47804   1.864   6.299   7.502 -0.2630 -0.6512 -0.5684
18294THY     HO47805   1.878   6.256   7.588  0.9576 -0.5591  0.0001
18294THY    CA147806   1.774   6.228   7.428 -0.1753  0.7786 -0.3116
18294THY    CA247807   1.681   6.286   7.336 -0.7738  0.2807  0.3687
18294THY    CP147808   1.668   6.437   7.312 -0.4568 -0.4165 -0.5522
18294THY    HP147809   1.766   6.485   7.321 -0.2783 -1.3171 -0.7102
18294THY    CP247810   1.581   6.506   7.409 -0.3597  0.1077 -0.1313
18294THY    HP247811   1.545   6.436   7.486  0.1478 -2.3104 -3.3119
18294THY    HP347812   1.490   6.544   7.361  0.2755 -0.0522  1.2235
18294THY    HP447813   1.632   6.594   7.448  1.1400 -1.6208 -0.1822
18294THY    CP347814   1.645   6.476   7.165  1.3077 -0.2328 -1.0785
18294THY    HP547815   1.542   6.441   7.146  0.9039 -0.4606  0.1741
18294THY    HP647816   1.699   6.424   7.085 -1.5737 -1.9087 -1.7685
18294THY    HP747817   1.639   6.582   7.140 -0.6950 -1.7544 -1.4870
18294THY    CA347818   1.602   6.190   7.268 -0.3715  0.4091 -1.4877
18294THY    HA347819   1.527   6.235   7.204 -0.0458  1.0149 -0.0254
18294THY    CA447820   1.606   6.056   7.289 -0.6257 -0.4801  0.5456
18294THY    HA447821   1.540   5.983   7.243  1.0455 -3.0377  0.5352
18294THY    CA547822   1.685   6.007   7.391 -0.0246  0.6819  0.2232
18294THY    CM147823   1.686   5.857   7.412  0.0797 -0.7816  0.2638
18294THY    HM147824   1.594   5.812   7.373  3.0862 -3.5780 -4.2418
18294THY    HM247825   1.710   5.840   7.518 -1.2896 -0.2682  1.3192
18294THY    HM347826   1.761   5.818   7.342  1.5758 -0.1148  1.8003
18294THY    CA647827   1.772   6.091   7.456  0.0608  0.4366 -0.0516
18294THY    HA647828   1.833   6.052   7.537 -1.1623  1.5910  0.3702
18295THY      O47829   3.870   4.780   6.551 -0.2912 -0.4755 -0.0842
18295THY     HO47830   3.842   4.722   6.479  0.1886 -0.6841 -0.0675
18295THY    CA147831   3.754   4.787   6.621 -0.6701  0.0330 -0.2715
18295THY    CA247832   3.732   4.891   6.716 -0.3388  0.4782 -0.1913
18295THY    CP147833   3.840   4.991   6.763  0.0014  0.2067  0.0826
18295THY    HP147834   3.937   4.960   6.720 -0.2337  1.6525 -2.9851
18295THY    CP247835   3.866   4.971   6.911 -0.6155  0.1844 -0.1769
18295THY    HP247836   3.967   5.006   6.937 -0.8969  1.2287 -0.0897
18295THY    HP347837   3.859   4.863   6.928  0.9744  0.3930 -0.2830
18295THY    HP447838   3.803   5.029   6.980  2.0662  1.3212  1.6093
18295THY    CP347839   3.808   5.128   6.724 -0.2424 -0.3894  0.5418
18295THY    HP547840   3.801   5.125   6.614  0.9525 -0.4711  0.2715
18295THY    HP647841   3.883   5.204   6.743 -1.4923  1.5180  1.3652
18295THY    HP747842   3.710   5.153   6.768  0.5469  1.1477  1.0110
18295THY    CA347843   3.604   4.900   6.776  0.0915  0.0017 -0.6864
18295THY    HA347844   3.588   4.986   6.841  1.3425 -0.8069  0.1796
18295THY    CA447845   3.506   4.806   6.742  0.7497 -0.1263  0.5761
18295THY    HA447846   3.405   4.819   6.780  0.8694  0.4036 -0.0166
18295THY    CA547847   3.525   4.706   6.646 -0.3459 -0.1400 -0.9992
18295THY    CM147848   3.415   4.629   6.592 -0.1130 -0.1697 -0.2121
18295THY    HM147849   3.436   4.523   6.611 -3.1693  2.6697 -0.4738
18295THY    HM247850   3.398   4.651   6.486  1.6987  0.0053  2.4545
18295THY    HM347851   3.320   4.656   6.640  0.0018 -0.6623  1.1198
18295THY    CA647852   3.650   4.699   6.583  0.0044  0.0358 -0.4168
18295THY    HA647853   3.674   4.631   6.502 -1.6247 -0.9303  0.1112
18296THY      O47854   1.706   6.663   4.947  0.1898  0.7532 -0.4978
18296THY     HO47855   1.751   6.746   4.970 -1.8743  0.4711  0.7677
18296THY    CA147856   1.641   6.676   4.824  0.4079  0.2129  0.1956
18296THY    CA247857   1.547   6.585   4.776  0.1700 -0.8025 -0.7232
18296THY    CP147858   1.513   6.455   4.855  0.4565 -0.6677  0.3651
18296THY    HP147859   1.591   6.419   4.923 -1.9611  1.3687 -1.4371
18296THY    CP247860   1.509   6.341   4.749  0.5986 -1.0762  0.1026
18296THY    HP247861   1.590   6.343   4.676  1.4842 -0.1581 -0.7137
18296THY    HP347862   1.411   6.344   4.700 -0.6395  1.2530  1.0077
18296THY    HP447863   1.519   6.242   4.795  1.1560 -0.2586  0.5253
18296THY    CP347864   1.386   6.477   4.943  0.6681 -0.6920  0.0844
18296THY    HP547865   1.296   6.506   4.887  0.0269  1.1167  1.8126
18296THY    HP647866   1.402   6.563   5.009 -1.1904 -0.0565 -0.0205
18296THY    HP747867   1.363   6.379   4.987  0.1867 -1.6402 -0.2491
18296THY    CA347868   1.488   6.620   4.653  0.2994  0.3177  0.1758
18296THY    HA347869   1.412   6.552   4.615  0.2986 -0.2036  0.4646
18296THY    CA447870   1.527   6.734   4.580  0.6983  0.5077 -0.3175
18296THY    HA447871   1.478   6.759   4.486 -0.9676  1.7776  1.5279
18296THY    CA547872   1.615   6.827   4.640  0.6428 -0.4447  0.1268
18296THY    CM147873   1.657   6.940   4.559 -0.2878 -0.2230  0.3127
18296THY    HM147874   1.710   7.019   4.613  0.4756  0.6157 -0.7453
18296THY    HM247875   1.568   6.988   4.516  1.1659 -2.0939  1.4922
18296THY    HM347876   1.713   6.911   4.469  0.5103 -0.2487  1.8450
18296THY    CA647877   1.663   6.799   4.772 -0.9098  0.5443 -0.7146
18296THY    HA647878   1.735   6.868   4.818 -0.2633 -0.3015 -0.8068
18297THY      O47879   3.099   8.664   4.984  0.2347 -0.7184  0.1576
18297THY     HO47880   3.030   8.605   4.950 -0.4779 -0.1685  0.6511
18297THY    CA147881   3.024   8.750   5.054 -0.1525 -0.0696 -0.2437
18297THY    CA247882   3.056   8.787   5.182  0.0364  0.2892 -1.4182
18297THY    CP147883   3.171   8.728   5.263  0.1187 -0.1631 -0.1152
18297THY    HP147884   3.218   8.645   5.208  2.1667  0.4128  0.5891
18297THY    CP247885   3.124   8.658   5.398 -0.3444 -0.3777 -0.1148
18297THY    HP247886   3.196   8.598   5.454  0.3414 -1.5743 -0.4494
18297THY    HP347887   3.048   8.580   5.386 -0.4230  1.5183 -0.3724
18297THY    HP447888   3.090   8.731   5.472  1.4994  2.7792 -2.2175
18297THY    CP347889   3.279   8.830   5.303 -0.1383 -0.3270 -0.6132
18297THY    HP547890   3.296   8.908   5.228  3.7445  2.0299  1.0978
18297THY    HP647891   3.372   8.778   5.328 -0.7325 -0.5898 -1.8347
18297THY    HP747892   3.238   8.871   5.396 -1.2778 -0.7323 -0.7915
18297THY    CA347893   2.977   8.893   5.246  0.1066 -0.1299  0.4214
18297THY    HA347894   3.009   8.931   5.343  1.0497 -0.8429  1.5327
18297THY    CA447895   2.862   8.941   5.180  0.6306 -0.5932  0.5908
18297THY    HA447896   2.793   9.011   5.226  1.9356 -0.8031  2.0877
18297THY    CA547897   2.815   8.884   5.059 -0.3577 -0.2380 -0.1295
18297THY    CM147898   2.692   8.928   4.996 -0.5129  0.8810  0.0815
18297THY    HM147899   2.684   9.035   4.974 -2.1951  0.3761 -0.1174
18297THY    HM247900   2.605   8.904   5.058  0.4880  1.8505 -1.1650
18297THY    HM347901   2.677   8.881   4.898 -0.9259  0.9811  0.0009
18297THY    CA647902   2.902   8.794   4.994 -0.3112  0.0171  0.1229
18297THY    HA647903   2.874   8.748   4.899 -0.7011 -0.0598  0.5138
18298THY      O47904   4.294   4.680   5.431 -0.2268  0.0002  0.2180
18298THY     HO47905   4.298   4.669   5.335 -0.8985 -0.1701  1.2252
18298THY    CA147906   4.415   4.693   5.483  0.2310  0.3353 -0.2740
18298THY    CA247907   4.429   4.778   5.590  0.1674  0.2092  0.1024
18298THY    CP147908   4.302   4.845   5.652 -1.0829  0.0209  0.4871
18298THY    HP147909   4.214   4.785   5.628  0.1288 -0.4260 -1.1734
18298THY    CP247910   4.284   4.989   5.605 -0.0851  0.0531 -0.3257
18298THY    HP247911   4.198   5.033   5.656  0.7921  1.8997 -0.6707
18298THY    HP347912   4.253   4.990   5.500 -1.3140  0.3386  2.9348
18298THY    HP447913   4.381   5.039   5.619 -0.0141  1.5842 -0.8342
18298THY    CP347914   4.298   4.859   5.810  0.0907  0.1331 -0.4574
18298THY    HP547915   4.362   4.944   5.835  0.1507  0.4884 -0.6044
18298THY    HP647916   4.342   4.771   5.858  0.7951 -0.3647 -0.3773
18298THY    HP747917   4.194   4.878   5.840 -0.3804  0.4938 -3.2555
18298THY    CA347918   4.555   4.812   5.638 -0.8830  0.4886 -0.2704
18298THY    HA347919   4.571   4.892   5.709  0.7797  0.5806 -0.6340
18298THY    CA447920   4.668   4.745   5.583 -0.1703  0.2245 -0.7273
18298THY    HA447921   4.767   4.773   5.619 -0.8438  1.3816  0.2725
18298THY    CA547922   4.658   4.653   5.486  0.8525  0.0412 -0.2776
18298THY    CM147923   4.777   4.588   5.423 -0.3373 -0.0154  0.1778
18298THY    HM147924   4.748   4.522   5.341  1.5509  0.5627 -1.4771
18298THY    HM247925   4.824   4.521   5.496 -0.1788 -0.5612 -0.3164
18298THY    HM347926   4.849   4.666   5.394  0.3732  0.4923 -0.2771
18298THY    CA647927   4.528   4.628   5.434 -0.0804  0.5984  0.5505
18298THY    HA647928   4.515   4.560   5.350  0.0649  0.6685  0.4371
18299THY      O47929   4.987   0.261   3.887 -0.0150  0.4310  0.3218
18299THY     HO47930   4.980   0.198   3.960 -0.5321  0.5600  0.5232
18299THY    CA147931   4.862   0.292   3.846  0.3724  0.4399 -0.0707
18299THY    CA247932   4.821   0.424   3.824  0.3747 -0.0420 -0.9704
18299THY    CP147933   4.938   0.523   3.820  0.0895 -0.8124  0.4379
18299THY    HP147934   5.022   0.476   3.769  0.5953 -0.1208  0.5841
18299THY    CP247935   4.983   0.578   3.949 -0.0763 -0.0418  0.0016
18299THY    HP247936   4.901   0.617   4.009  2.3303  1.1798  3.7194
18299THY    HP347937   5.050   0.661   3.926 -1.3125 -0.0197  1.0243
18299THY    HP447938   5.036   0.497   4.001 -0.8263 -0.5539 -0.8399
18299THY    CP347939   4.899   0.647   3.727 -0.2204  0.7516  0.3697
18299THY    HP547940   4.823   0.713   3.771 -1.0549  0.7681 -0.5844
18299THY    HP647941   4.861   0.611   3.631  2.6254 -1.7399  3.4587
18299THY    HP747942   4.983   0.711   3.698 -1.3840 -1.1469  1.1175
18299THY    CA347943   4.686   0.456   3.812 -0.4308  0.2464 -0.6841
18299THY    HA347944   4.644   0.552   3.786 -1.8417  0.0130 -1.3380
18299THY    CA447945   4.592   0.349   3.808  0.1830  0.3063 -0.4159
18299THY    HA447946   4.486   0.368   3.792  0.4994  0.6283  1.8766
18299THY    CA547947   4.629   0.217   3.826 -0.0465  0.5071 -0.8991
18299THY    CM147948   4.523   0.107   3.822  0.4756 -0.6088  0.1999
18299THY    HM147949   4.448   0.110   3.743 -0.8972  0.5692 -1.1522
18299THY    HM247950   4.463   0.115   3.914 -0.7572 -1.4987  1.6548
18299THY    HM347951   4.578   0.013   3.808  0.3244 -2.1221  0.3161
18299THY    CA647952   4.766   0.193   3.839 -0.7940  0.2512  0.4502
18299THY    HA647953   4.798   0.090   3.853 -1.8932 -2.6328 -0.3842
18300THY      O47954   8.727   0.725   7.345 -0.1564  0.0182  0.3568
18300THY     HO47955   8.811   0.702   7.302 -1.2457 -1.6674 -0.6836
18300THY    CA147956   8.671   0.608   7.355  0.0693  0.8584 -0.7250
18300THY    CA247957   8.538   0.581   7.387  0.7526 -0.4972 -0.4222
18300THY    CP147958   8.431   0.687   7.391 -0.0537 -0.7449  0.0432
18300THY    HP147959   8.466   0.781   7.347 -1.3979 -3.0702 -0.4686
18300THY    CP247960   8.386   0.718   7.534  0.2527 -0.2043  0.5606
18300THY    HP247961   8.475   0.737   7.596 -0.1101  0.2333  0.8565
18300THY    HP347962   8.341   0.630   7.582 -0.5302  0.4460  1.2937
18300THY    HP447963   8.323   0.807   7.534 -1.0590 -1.6279 -0.3328
18300THY    CP347964   8.309   0.653   7.309 -0.2150 -0.3080 -0.6764
18300THY    HP547965   8.338   0.627   7.206 -0.6377 -0.6207  0.0416
18300THY    HP647966   8.224   0.722   7.316  0.1095 -0.8620 -0.2027
18300THY    HP747967   8.265   0.557   7.337 -1.4719 -3.5475 -1.1889
18300THY    CA347968   8.495   0.444   7.418  0.7293  0.0939  0.4665
18300THY    HA347969   8.398   0.418   7.460  1.0056  0.0141 -0.7469
18300THY    CA447970   8.591   0.340   7.400 -0.2509  0.2681  0.1659
18300THY    HA447971   8.575   0.235   7.423  2.1978 -0.4317 -0.4170
18300THY    CA547972   8.722   0.369   7.369 -0.5869 -0.4401  0.4416
18300THY    CM147973   8.826   0.264   7.358  0.5230  0.3511 -0.0839
18300THY    HM147974   8.828   0.201   7.448  1.4966  0.2918 -0.1527
18300THY    HM247975   8.925   0.308   7.346 -0.0411 -1.1591  0.8286
18300THY    HM347976   8.798   0.196   7.276 -0.7881  2.4308 -2.2463
18300THY    CA647977   8.763   0.502   7.344  0.3879 -0.5016  0.2338
18300THY    HA647978   8.867   0.517   7.318  0.2805 -0.1616  1.7714
18301THY      O47979   1.969   0.408   4.730 -0.1275 -0.1038 -0.0969
18301THY     HO47980   1.883   0.449   4.710  1.6946 -1.7192  3.4149
18301THY    CA147981   2.030   0.380   4.612  0.0827  0.5641  0.4055
18301THY    CA247982   2.161   0.335   4.608  0.6088 -0.2405 -0.3409
18301THY    CP147983   2.230   0.312   4.745 -0.7466 -0.1651 -0.0647
18301THY    HP147984   2.188   0.379   4.821 -2.3922 -0.6853 -0.4512
18301THY    CP247985   2.382   0.346   4.737  0.1158  0.0334  1.1222
18301THY    HP247986   2.431   0.269   4.676 -1.8425 -1.7955  1.2502
18301THY    HP347987   2.430   0.355   4.835  0.0724 -0.0665  2.6400
18301THY    HP447988   2.381   0.443   4.686 -3.2064  0.8273  1.6500
18301THY    CP347989   2.216   0.167   4.792 -0.3745 -0.2124 -0.2003
18301THY    HP547990   2.267   0.158   4.889  0.4695 -0.3332  2.3326
18301THY    HP647991   2.269   0.093   4.731 -0.9564  1.1925 -1.8148
18301THY    HP747992   2.109   0.143   4.789 -0.0415 -2.6523 -1.7814
18301THY    CA347993   2.232   0.322   4.484 -0.1324 -0.0716  0.0821
18301THY    HA347994   2.335   0.286   4.482 -0.3306  1.9316 -0.6758
18301THY    CA447995   2.160   0.339   4.362 -0.1918  0.0469  0.3012
18301THY    HA447996   2.214   0.325   4.269  2.3197  1.6728 -1.5654
18301THY    CA547997   2.028   0.377   4.368 -0.3179 -0.2896 -0.0826
18301THY    CM147998   1.960   0.407   4.235 -0.9950 -0.1598 -0.8067
18301THY    HM147999   1.997   0.331   4.165 -1.1701 -2.3582  1.0397
18301THY    HM248000   1.982   0.507   4.196 -1.0781  2.2716  0.2221
18301THY    HM348001   1.851   0.396   4.243 -1.0908  1.1818  0.6951
18301THY    CA648002   1.963   0.401   4.494  0.2635  0.3386 -0.0712
18301THY    HA648003   1.862   0.440   4.493  0.4128  0.8144  0.3308
18302THY      O48004   7.081   2.280   6.842 -0.3775 -0.0368  0.0268
18302THY     HO48005   7.024   2.231   6.904 -3.7387 -1.9258  1.2061
18302THY    CA148006   7.095   2.204   6.735  0.0235 -0.1758  0.4321
18302THY    CA248007   7.150   2.073   6.746 -0.4269  0.1061 -0.1379
18302THY    CP148008   7.182   2.015   6.886  0.2328 -0.2976 -0.2597
18302THY    HP148009   7.118   2.056   6.965  2.1738  1.8506 -1.1485
18302THY    CP248010   7.320   2.063   6.930  0.2328 -0.0643  0.5873
18302THY    HP248011   7.396   2.046   6.853  2.3734  2.1438 -0.5368
18302THY    HP348012   7.335   1.997   7.017  0.1443 -0.1732  0.4241
18302THY    HP448013   7.320   2.169   6.958  2.4287  0.4241  0.5092
18302THY    CP348014   7.156   1.863   6.887 -0.2987  0.4332  0.2296
18302THY    HP548015   7.131   1.833   6.989  1.6317  0.5219 -1.2767
18302THY    HP648016   7.242   1.803   6.856 -0.5511 -0.2428  0.2044
18302THY    HP748017   7.077   1.827   6.819  0.4237 -0.0793 -0.4179
18302THY    CA348018   7.173   2.001   6.640  0.3435  0.1725  0.4159
18302THY    HA348019   7.225   1.906   6.644  0.7917 -0.9745  0.5951
18302THY    CA448020   7.126   2.045   6.516  0.7633 -0.1748  0.3047
18302THY    HA448021   7.142   1.981   6.430  0.5594 -0.0210  0.0474
18302THY    CA548022   7.069   2.175   6.502  0.0198 -0.3588 -0.8287
18302THY    CM148023   7.009   2.214   6.369  0.4157  0.5248  0.3170
18302THY    HM148024   7.034   2.313   6.330  1.0446  1.5052  0.5584
18302THY    HM248025   6.900   2.224   6.384  0.3121 -0.3708  0.6455
18302THY    HM348026   7.021   2.144   6.286 -1.7888 -0.6870  1.2755
18302THY    CA648027   7.063   2.255   6.612 -0.2793 -0.2447 -0.8915
18302THY    HA648028   7.024   2.356   6.619 -0.5923  1.8414 -1.1054
18303THY      O48029   3.343   5.935   7.377  0.2376  0.1264  0.2052
18303THY     HO48030   3.268   5.984   7.416 -1.3464  1.3509 -2.9500
18303THY    CA148031   3.300   5.938   7.244 -0.6547 -0.4823  0.3348
18303THY    CA248032   3.336   5.835   7.154  0.8493 -0.3401  0.0349
18303THY    CP148033   3.422   5.720   7.207 -0.2482  0.0474  0.4108
18303THY    HP148034   3.505   5.777   7.252  0.2140  0.3466 -0.4825
18303THY    CP248035   3.479   5.637   7.092 -0.3068  0.3335  0.5369
18303THY    HP248036   3.566   5.580   7.128 -0.7977  1.2350  0.3414
18303THY    HP348037   3.514   5.702   7.011 -1.1002  0.7644  1.5261
18303THY    HP448038   3.398   5.577   7.049 -0.2801 -0.1057  0.8099
18303THY    CP348039   3.348   5.626   7.306 -0.5022  0.0494 -0.1813
18303THY    HP548040   3.313   5.669   7.401 -2.5219 -1.1509  0.9536
18303THY    HP648041   3.415   5.540   7.321 -0.9240  2.5932 -0.1424
18303THY    HP748042   3.254   5.597   7.258 -2.1235  1.1999  2.7508
18303THY    CA348043   3.275   5.839   7.026 -0.6550 -0.2402  0.5452
18303THY    HA348044   3.302   5.772   6.946 -0.5198 -1.6694  2.2292
18303THY    CA448045   3.197   5.947   6.982  0.0272 -0.3838 -0.0843
18303THY    HA448046   3.131   5.939   6.896  0.2769 -0.7541  1.4675
18303THY    CA548047   3.175   6.054   7.070  0.3569 -0.2914  0.2106
18303THY    CM148048   3.089   6.170   7.031  0.0034 -0.2103  0.0329
18303THY    HM148049   2.989   6.126   7.016 -0.0999  0.9585 -0.1748
18303THY    HM248050   3.115   6.220   6.938 -1.2170 -0.2910  0.5598
18303THY    HM348051   3.101   6.251   7.104  0.6082 -0.9257  0.6020
18303THY    CA648052   3.227   6.043   7.200  0.2163  0.1486  0.1956
18303THY    HA648053   3.214   6.125   7.271  0.3115  1.5088 -0.9197
18304THY      O48054   4.898   2.578   4.198  0.0801 -0.8122  0.2207
18304THY     HO48055   4.848   2.659   4.177  0.7674  0.0149  0.8696
18304THY    CA148056   4.886   2.575   4.330 -1.0369  0.3600 -0.1923
18304THY    CA248057   4.980   2.505   4.404  0.0462  0.2499  0.3243
18304THY    CP148058   5.088   2.426   4.336 -0.4333 -0.1006 -0.4457
18304THY    HP148059   5.055   2.374   4.245  0.9212 -0.9947  0.2130
18304THY    CP248060   5.129   2.310   4.424  0.1061  0.5240 -0.1650
18304THY    HP248061   5.037   2.275   4.472 -2.1950 -2.0974  1.8494
18304THY    HP348062   5.208   2.339   4.493  0.4609 -0.4525  1.2865
18304THY    HP448063   5.182   2.233   4.366  1.7090  2.2170 -0.3872
18304THY    CP348064   5.213   2.521   4.310  0.3908  0.4277  0.1044
18304THY    HP548065   5.240   2.569   4.404 -0.2395  0.6629  0.0022
18304THY    HP648066   5.180   2.599   4.240 -0.2187 -0.8803 -1.2625
18304THY    HP748067   5.296   2.462   4.269 -1.9717 -0.0619 -3.1670
18304THY    CA348068   4.973   2.516   4.545 -0.1685  0.1072  0.3529
18304THY    HA348069   5.039   2.462   4.612 -3.1570  3.3398  0.3077
18304THY    CA448070   4.873   2.597   4.603 -0.1334 -0.5083 -0.0752
18304THY    HA448071   4.871   2.598   4.711 -0.0088 -0.5093  0.2416
18304THY    CA548072   4.776   2.657   4.530 -0.3055  0.4113  0.3250
18304THY    CM148073   4.663   2.732   4.587 -0.4542 -0.3182 -0.2426
18304THY    HM148074   4.668   2.837   4.555 -1.8251  0.3260  0.0413
18304THY    HM248075   4.658   2.722   4.696  2.8469  0.0977  1.3627
18304THY    HM348076   4.576   2.678   4.546  0.4813 -0.4578 -1.7151
18304THY    CA648077   4.789   2.654   4.389  0.0507  0.3338 -0.6792
18304THY    HA648078   4.727   2.717   4.326 -1.4682  0.0007 -2.4103
18305THY      O48079   5.429   3.240   6.986  0.3957  0.3456 -0.1881
18305THY     HO48080   5.444   3.171   7.053 -1.0791 -1.4394 -2.4060
18305THY    CA148081   5.453   3.190   6.865 -0.4056  0.1537 -0.4451
18305THY    CA248082   5.457   3.269   6.754  0.2951  0.5006 -0.6216
18305THY    CP148083   5.430   3.419   6.763 -0.5002 -0.3947 -0.2004
18305THY    HP148084   5.378   3.445   6.856 -2.4552 -1.8181  1.2833
18305THY    CP248085   5.325   3.449   6.660 -0.2319 -0.2544 -0.5688
18305THY    HP248086   5.367   3.445   6.560  0.9427  0.1737  0.5763
18305THY    HP348087   5.284   3.549   6.681  1.1630 -1.2690  0.2444
18305THY    HP448088   5.236   3.384   6.657 -1.1045 -0.8782  0.6195
18305THY    CP348089   5.554   3.516   6.738  0.4659  0.4685 -0.5845
18305THY    HP548090   5.598   3.554   6.831 -0.8119  0.3774  1.2824
18305THY    HP648091   5.524   3.610   6.689 -0.4415  1.9385 -0.0658
18305THY    HP748092   5.636   3.469   6.683  1.0480  0.6238  0.2330
18305THY    CA348093   5.481   3.207   6.631  0.9020  0.1715 -0.1005
18305THY    HA348094   5.495   3.271   6.544  0.8802 -0.0233 -0.3558
18305THY    CA448095   5.486   3.069   6.619  0.3890 -0.4445  0.1190
18305THY    HA448096   5.515   3.020   6.526  1.7810  0.0926 -0.1501
18305THY    CA548097   5.489   2.993   6.736 -0.1993  0.2121 -0.5466
18305THY    CM148098   5.524   2.848   6.725 -0.9361 -0.3066  0.1492
18305THY    HM148099   5.437   2.781   6.732  1.0238 -2.3878 -2.8705
18305THY    HM248100   5.594   2.840   6.809  0.5567 -1.4539  0.8778
18305THY    HM348101   5.578   2.819   6.634 -1.7638 -0.3804 -1.2269
18305THY    CA648102   5.465   3.050   6.856  0.3285  0.2720  0.2517
18305THY    HA648103   5.459   2.976   6.936  0.1641 -1.0897 -1.2434
18306THY      O48104   1.033   3.215   6.116  0.3337  0.1792 -0.1288
18306THY     HO48105   1.051   3.302   6.075 -0.2480 -1.5276 -0.7674
18306THY    CA148106   1.150   3.179   6.170  0.7041  0.0482  0.1409
18306THY    CA248107   1.161   3.062   6.253  0.2705 -0.7027 -0.2155
18306THY    CP148108   1.039   2.982   6.282 -0.0579 -0.9862 -0.8829
18306THY    HP148109   0.957   3.005   6.212 -1.3837  0.9148  0.4561
18306THY    CP248110   0.997   3.000   6.435  0.4679  0.8570 -0.3067
18306THY    HP248111   0.913   2.933   6.458 -0.8640  2.5713  1.7973
18306THY    HP348112   0.966   3.105   6.444  0.0428  0.1418 -0.3661
18306THY    HP448113   1.076   2.973   6.507 -0.3190  1.8060 -0.1463
18306THY    CP348114   1.072   2.833   6.256  0.4878 -0.2810  0.0590
18306THY    HP548115   1.136   2.792   6.335  1.7453 -0.5957  1.3603
18306THY    HP648116   1.108   2.828   6.153 -2.1358 -1.4479  2.5198
18306THY    HP748117   0.975   2.781   6.248  0.7655 -1.2066 -0.3299
18306THY    CA348118   1.284   3.020   6.297  0.1200  0.2774  0.1116
18306THY    HA348119   1.300   2.937   6.366  1.2982  0.7610  0.7151
18306THY    CA448120   1.397   3.088   6.248 -0.0166 -0.0759  0.8332
18306THY    HA448121   1.498   3.056   6.275 -1.5140  0.5949 -4.1501
18306THY    CA548122   1.386   3.201   6.164 -0.2857 -0.3060  0.2635
18306THY    CM148123   1.502   3.278   6.135 -0.6920  0.1872 -0.6456
18306THY    HM148124   1.597   3.234   6.170  0.6613 -2.3747  0.0774
18306THY    HM248125   1.491   3.376   6.183  2.7852  3.2630 -1.5160
18306THY    HM348126   1.510   3.300   6.028  2.2576  0.0190 -1.9338
18306THY    CA648127   1.263   3.248   6.125 -0.2128  0.0315  0.3352
18306THY    HA648128   1.253   3.326   6.050 -0.6051 -0.2528  0.0196
18307THY      O48129   1.374   8.263   4.632  0.5250 -0.0500  0.4655
18307THY     HO48130   1.311   8.325   4.673 -0.4084  1.0944 -1.1516
18307THY    CA148131   1.298   8.145   4.617 -0.0075  1.1133 -0.6979
18307THY    CA248132   1.342   8.040   4.529  0.0977 -0.7578 -0.0013
18307THY    CP148133   1.476   8.049   4.458  0.9277 -0.7021 -0.1460
18307THY    HP148134   1.521   8.145   4.486  0.7671 -0.8817 -0.0164
18307THY    CP248135   1.456   8.052   4.306 -0.0482  0.2531 -0.5666
18307THY    HP248136   1.434   7.954   4.262  1.1608 -2.1599  0.1616
18307THY    HP348137   1.546   8.081   4.251  0.1949 -0.0187 -1.7941
18307THY    HP448138   1.381   8.130   4.292  2.2612  1.1247  1.9647
18307THY    CP348139   1.563   7.931   4.493 -0.1415 -0.3222 -0.2753
18307THY    HP548140   1.570   7.912   4.601  3.1442  0.3652  3.6531
18307THY    HP648141   1.665   7.956   4.463 -0.0262 -0.7937 -1.2412
18307THY    HP748142   1.533   7.842   4.436 -0.3483  0.5997 -0.8074
18307THY    CA348143   1.259   7.930   4.509 -0.0048  0.4856  0.3081
18307THY    HA348144   1.293   7.844   4.453 -0.8626 -0.7498  0.7420
18307THY    CA448145   1.137   7.926   4.576  0.0479 -0.5309 -0.5487
18307THY    HA448146   1.073   7.839   4.565 -0.1088  0.3898 -0.5609
18307THY    CA548147   1.094   8.024   4.666 -0.4834  0.4345  0.4920
18307THY    CM148148   0.961   8.027   4.730 -0.5809 -0.6306 -0.0705
18307THY    HM148149   0.967   8.083   4.824  0.0394 -0.3456 -0.5968
18307THY    HM248150   0.927   7.927   4.761  1.5498 -1.1624 -1.0251
18307THY    HM348151   0.886   8.081   4.672 -0.3155  1.7677  3.1611
18307THY    CA648152   1.171   8.143   4.674 -0.5271 -0.7989  0.6322
18307THY    HA648153   1.132   8.216   4.744  1.3295 -1.7878  2.6987
18308THY      O48154   3.656   4.583   3.163  0.3299  0.3581  0.1372
18308THY     HO48155   3.679   4.598   3.070  0.3505  0.3603  0.1189
18308THY    CA148156   3.650   4.458   3.182 -0.3847  0.1072  0.3909
18308THY    CA248157   3.614   4.406   3.307 -0.4263 -0.5437  0.3118
18308THY    CP148158   3.563   4.512   3.405 -0.3077 -0.0699  0.4902
18308THY    HP148159   3.515   4.591   3.346 -0.3209  0.0683  0.5863
18308THY    CP248160   3.689   4.572   3.481  0.3271 -0.1918 -0.1203
18308THY    HP248161   3.719   4.501   3.559  2.1864 -0.9641 -0.2539
18308THY    HP348162   3.666   4.659   3.543 -0.7255  1.3086 -1.3950
18308THY    HP448163   3.774   4.588   3.414 -1.2278 -1.8101  1.8326
18308THY    CP348164   3.452   4.464   3.499 -0.1943 -0.3154 -0.4997
18308THY    HP548165   3.425   4.545   3.567  0.9263 -0.0349 -0.3415
18308THY    HP648166   3.488   4.377   3.555  0.0371  0.4125  0.0504
18308THY    HP748167   3.362   4.435   3.444 -1.6349  0.2871  2.5026
18308THY    CA348168   3.608   4.265   3.332  1.4606  0.6022 -0.3469
18308THY    HA348169   3.560   4.220   3.418 -1.2708 -2.9792 -5.2034
18308THY    CA448170   3.644   4.189   3.221  0.6216 -0.6318  0.0847
18308THY    HA448171   3.637   4.082   3.242 -0.6054  1.1803  0.4735
18308THY    CA548172   3.698   4.237   3.100  0.2686 -0.1385  0.1992
18308THY    CM148173   3.736   4.146   2.993  0.1728  0.2180  0.7454
18308THY    HM148174   3.801   4.192   2.918  0.4157  0.9084  1.5561
18308THY    HM248175   3.646   4.112   2.940  0.3372  0.0166  0.6300
18308THY    HM348176   3.785   4.053   3.022  0.0512  2.5785  1.3446
18308THY    CA648177   3.700   4.377   3.082  0.1444  0.2566 -0.1822
18308THY    HA648178   3.742   4.421   2.992  0.3989  0.8499  0.8000
18309THY      O48179   2.120   8.060   2.480  0.3136 -0.5188 -0.1891
18309THY     HO48180   2.078   8.140   2.517  0.2574  0.2999 -0.5924
18309THY    CA148181   2.020   7.986   2.424 -0.0810  0.4038 -0.0291
18309THY    CA248182   2.028   7.845   2.419 -0.2288  0.1566 -0.3201
18309THY    CP148183   2.159   7.774   2.463 -0.1144 -0.3600  0.4325
18309THY    HP148184   2.245   7.841   2.471 -0.6228  0.2254  1.0277
18309THY    CP248185   2.213   7.665   2.360 -0.4489 -0.4535  0.0136
18309THY    HP248186   2.280   7.709   2.285 -1.0544 -0.4128  1.0575
18309THY    HP348187   2.130   7.602   2.326 -0.5906 -0.6680  0.3109
18309THY    HP448188   2.273   7.595   2.418 -0.7734  0.3976  0.4116
18309THY    CP348189   2.131   7.710   2.601 -0.4032  0.3065  0.1676
18309THY    HP548190   2.216   7.652   2.638 -0.3088  1.3863  0.9575
18309THY    HP648191   2.045   7.642   2.596 -1.1836  0.0481  1.1273
18309THY    HP748192   2.113   7.781   2.683  1.1756  1.3202 -0.5621
18309THY    CA348193   1.914   7.778   2.375  0.2303 -0.1193 -0.5394
18309THY    HA348194   1.909   7.671   2.391  0.9315  0.2995 -0.5157
18309THY    CA448195   1.806   7.852   2.334  0.2234  0.2765 -0.1398
18309THY    HA448196   1.717   7.794   2.311 -0.0506  2.9517 -0.9493
18309THY    CA548197   1.792   7.991   2.337 -0.4565 -0.4306 -0.2679
18309THY    CM148198   1.671   8.067   2.290 -0.5217 -0.0301 -0.3967
18309THY    HM148199   1.688   8.175   2.300 -0.9710 -1.4948 -0.1711
18309THY    HM248200   1.583   8.042   2.350  0.4205  0.9996 -1.3377
18309THY    HM348201   1.657   8.043   2.184  0.4369 -0.4594  0.8043
18309THY    CA648202   1.910   8.056   2.378  0.2933 -0.5793 -0.4912
18309THY    HA648203   1.918   8.163   2.366  2.3220 -0.1742 -0.5562
18310THY      O48204   1.053   3.515   4.295  0.0412 -0.7370  0.2936
18310THY     HO48205   0.995   3.448   4.255  1.3951 -2.3052  0.0017
18310THY    CA148206   1.000   3.544   4.416 -0.2901 -0.1667 -0.3712
18310THY    CA248207   1.059   3.636   4.509  0.1101  0.1344  0.5389
18310THY    CP148208   1.178   3.726   4.477  0.1557 -0.0735  0.0918
18310THY    HP148209   1.206   3.703   4.374  2.9618  1.0427 -1.9666
18310THY    CP248210   1.294   3.690   4.567  0.6797  0.3795  0.5254
18310THY    HP248211   1.326   3.585   4.568  1.9688  2.9023  0.8583
18310THY    HP348212   1.273   3.721   4.670  1.7682  1.0604 -0.8979
18310THY    HP448213   1.384   3.747   4.540  0.9218 -0.2681 -0.1475
18310THY    CP348214   1.137   3.874   4.487  0.5533 -0.0109  0.4647
18310THY    HP548215   1.226   3.933   4.461  0.4650  1.1500  1.1454
18310THY    HP648216   1.105   3.909   4.586 -1.7651 -0.5046 -0.1114
18310THY    HP748217   1.065   3.897   4.407  1.3449 -0.5331  1.1999
18310THY    CA348218   0.992   3.653   4.636 -0.4555  0.5683  0.2159
18310THY    HA348219   1.034   3.724   4.707  0.6645 -0.4353  0.5798
18310THY    CA448220   0.890   3.557   4.670 -0.2414  0.0266  0.8163
18310THY    HA448221   0.854   3.549   4.772  1.8426  0.9974  2.9711
18310THY    CA548222   0.835   3.475   4.578  0.2353  0.0177 -0.5018
18310THY    CM148223   0.724   3.379   4.614 -0.4637  0.2673  0.0365
18310THY    HM148224   0.625   3.424   4.617 -0.1808  1.3243  0.6347
18310THY    HM248225   0.739   3.328   4.710  0.5558 -0.8138 -1.8460
18310THY    HM348226   0.716   3.293   4.546 -1.3889  0.6059 -0.1559
18310THY    CA648227   0.880   3.481   4.449 -0.4198 -0.3620 -0.1153
18310THY    HA648228   0.832   3.427   4.367 -2.8482  0.8280  0.0847
18311THY      O48229   8.996   1.497   6.995  0.4576  0.0218 -0.4550
18311THY     HO48230   8.987   1.462   6.905 -0.8260  0.1147 -0.4270
18311THY    CA148231   8.910   1.598   6.999  0.2582 -0.3569  0.1340
18311THY    CA248232   8.912   1.698   7.096  0.5522 -0.2036  0.3971
18311THY    CP148233   9.042   1.710   7.181  0.0850  0.1387  0.0795
18311THY    HP148234   9.089   1.611   7.190  0.4842 -3.0157 -0.1117
18311THY    CP248235   9.024   1.767   7.322 -1.0444 -0.0896 -0.5536
18311THY    HP248236   9.116   1.743   7.377 -0.6891  0.6706  2.2109
18311THY    HP348237   8.940   1.710   7.363 -0.6601 -0.4932 -1.4317
18311THY    HP448238   9.003   1.873   7.333 -2.7034  0.2703 -0.8966
18311THY    CP348239   9.153   1.793   7.112  1.0743  0.2038 -0.1942
18311THY    HP548240   9.114   1.894   7.095 -0.2617 -0.8258 -0.8508
18311THY    HP648241   9.187   1.750   7.017  0.3609  0.9575 -2.5789
18311THY    HP748242   9.230   1.800   7.189  1.5461 -0.1697 -1.0870
18311THY    CA348243   8.802   1.793   7.101 -0.0340  0.6521 -0.2720
18311THY    HA348244   8.810   1.877   7.169 -1.1647  1.6178 -0.9197
18311THY    CA448245   8.698   1.781   6.998 -0.3577 -0.3052  0.5235
18311THY    HA448246   8.609   1.843   6.992 -3.0410  0.1815 -2.9301
18311THY    CA548247   8.698   1.671   6.913 -0.1776 -0.4212 -0.7248
18311THY    CM148248   8.595   1.651   6.814 -0.1055  0.5013 -0.0544
18311THY    HM148249   8.509   1.718   6.829 -0.8162  0.9544 -1.0334
18311THY    HM248250   8.556   1.549   6.807 -0.7804  0.0680  0.2309
18311THY    HM348251   8.638   1.667   6.715 -1.4336 -0.2845 -1.0738
18311THY    CA648252   8.806   1.581   6.912  0.4991 -0.2194  0.0418
18311THY    HA648253   8.803   1.500   6.840  2.0405 -0.0079 -0.2228
18312THY      O48254   6.829   6.227   5.812  0.8521 -0.1048  0.0471
18312THY     HO48255   6.808   6.312   5.768  1.9562 -1.8775 -0.5387
18312THY    CA148256   6.772   6.234   5.940  0.3860  0.4288 -0.0126
18312THY    CA248257   6.767   6.119   6.015 -0.0403  0.3947  0.1749
18312THY    CP148258   6.837   5.988   5.962 -0.3448 -0.4510  1.4864
18312THY    HP148259   6.925   6.011   5.900 -0.8751 -1.9514 -0.2732
18312THY    CP248260   6.742   5.896   5.885  0.4678  0.3618  0.3957
18312THY    HP248261   6.790   5.806   5.845 -0.2681 -2.2252  1.0692
18312THY    HP348262   6.703   5.949   5.797  0.5508  1.2390  1.9782
18312THY    HP448263   6.648   5.880   5.938  0.4485  1.3874  3.3074
18312THY    CP348264   6.884   5.889   6.074 -0.3203 -0.1703 -0.5282
18312THY    HP548265   6.810   5.823   6.122 -2.1751  1.0565  2.2243
18312THY    HP648266   6.906   5.956   6.158 -1.3178  1.5227 -2.2161
18312THY    HP748267   6.971   5.831   6.043  0.7383 -0.6794  1.2386
18312THY    CA348268   6.712   6.122   6.149  0.6348  0.1757 -0.0266
18312THY    HA348269   6.701   6.031   6.208  2.0289 -0.4610 -0.6320
18312THY    CA448270   6.653   6.248   6.192  0.0213  0.1475  0.2668
18312THY    HA448271   6.601   6.244   6.287  1.1560  0.8643  1.6237
18312THY    CA548272   6.661   6.363   6.107  0.2668 -0.4870  0.5767
18312THY    CM148273   6.600   6.488   6.161 -0.0525  0.0766 -0.0640
18312THY    HM148274   6.663   6.520   6.245  0.4316 -1.0755  2.1864
18312THY    HM248275   6.499   6.464   6.198 -0.3056 -1.4686 -1.5515
18312THY    HM348276   6.585   6.571   6.091 -0.1180  1.7691  1.4123
18312THY    CA648277   6.714   6.353   5.978  0.6070 -0.2487  0.4403
18312THY    HA648278   6.704   6.442   5.917 -0.9652  1.4722  1.5223
18313THY      O48279   7.868   0.984   3.422  0.0454 -0.6412  0.0414
18313THY     HO48280   7.869   1.074   3.386 -1.5824  2.6352  1.5387
18313THY    CA148281   7.851   0.903   3.312  0.6167 -0.1244  0.0905
18313THY    CA248282   7.733   0.820   3.302 -0.5897 -0.2582  0.2741
18313THY    CP148283   7.632   0.816   3.423 -0.6357  0.1249  1.1572
18313THY    HP148284   7.648   0.909   3.479 -0.7473  2.1734  0.0109
18313THY    CP248285   7.645   0.700   3.527 -0.8462 -0.2651  0.1982
18313THY    HP248286   7.579   0.700   3.614 -0.1140  0.3030 -0.4499
18313THY    HP348287   7.747   0.694   3.566 -0.8096 -0.4139 -0.1914
18313THY    HP448288   7.637   0.612   3.462  1.3638 -1.1058  0.5643
18313THY    CP348289   7.490   0.823   3.360  0.1913  0.6164 -0.8932
18313THY    HP548290   7.490   0.896   3.279 -0.4188 -0.5007 -2.0889
18313THY    HP648291   7.415   0.841   3.438 -1.2591 -0.6791 -1.1741
18313THY    HP748292   7.464   0.722   3.327 -0.2081 -2.7344  0.1998
18313THY    CA348293   7.712   0.735   3.194 -0.0132  0.8678 -0.5087
18313THY    HA348294   7.632   0.662   3.196  0.6645  2.2758 -1.2525
18313THY    CA448295   7.801   0.752   3.079  0.2154  0.1894 -0.7767
18313THY    HA448296   7.799   0.698   2.985 -1.1064 -0.3213  0.0866
18313THY    CA548297   7.923   0.829   3.103  0.0511 -0.0463  0.9456
18313THY    CM148298   8.018   0.847   2.992 -0.5003  0.3713 -0.6716
18313THY    HM148299   7.962   0.859   2.899 -1.0499  1.0762  4.1366
18313THY    HM248300   8.091   0.766   2.981 -0.7760  1.2915 -1.0711
18313THY    HM348301   8.090   0.927   3.013 -0.4762  1.0804 -0.8706
18313THY    CA648302   7.943   0.905   3.219 -0.4141  0.6639 -0.2365
18313THY    HA648303   8.038   0.951   3.243 -1.5264  0.8754  2.0796
18314THY      O48304   8.816   1.456   2.701 -0.2822 -0.5277 -0.2526
18314THY     HO48305   8.830   1.449   2.797 -0.3036 -0.6305 -2.3472
18314THY    CA148306   8.773   1.581   2.669  0.0025 -0.1798  0.0957
18314THY    CA248307   8.856   1.695   2.664 -0.2686  0.2371 -0.8543
18314THY    CP148308   9.002   1.680   2.682 -0.5265  0.1567 -0.3178
18314THY    HP148309   9.027   1.574   2.672 -1.9770 -1.0797 -0.5824
18314THY    CP248310   9.050   1.740   2.813  0.0120 -0.6899 -0.2716
18314THY    HP248311   9.062   1.849   2.814  0.8785  2.8577 -0.2667
18314THY    HP348312   9.139   1.688   2.849  0.1568  0.3630  0.6633
18314THY    HP448313   8.980   1.721   2.895  0.0958 -0.8565 -1.3381
18314THY    CP348314   9.080   1.755   2.569 -0.2174 -0.4040 -1.2162
18314THY    HP548315   9.187   1.733   2.581  0.0409 -2.1185 -1.0264
18314THY    HP648316   9.078   1.863   2.582  1.4363 -0.9628 -1.0915
18314THY    HP748317   9.057   1.728   2.465  0.7252 -1.6984  2.4533
18314THY    CA348318   8.790   1.820   2.633  0.0890  0.0111 -0.4141
18314THY    HA348319   8.849   1.911   2.632 -1.6711  1.0486  0.7870
18314THY    CA448320   8.655   1.818   2.606 -0.0600 -0.5105 -0.5073
18314THY    HA448321   8.609   1.911   2.572  0.0083  1.3319  0.2462
18314THY    CA548322   8.579   1.700   2.607 -0.1796  0.7765 -0.3188
18314THY    CM148323   8.431   1.700   2.575  0.3527  0.0911  0.3607
18314THY    HM148324   8.387   1.798   2.595 -3.0412  0.0084 -1.0218
18314THY    HM248325   8.378   1.629   2.640 -0.0450  0.1253  0.6855
18314THY    HM348326   8.430   1.672   2.469  1.9574  0.0547  0.3611
18314THY    CA648327   8.639   1.583   2.645 -0.2754  0.1555 -0.0720
18314THY    HA648328   8.585   1.489   2.650  1.4770  1.6898 -1.0893
18315THY      O48329   9.131   6.060   6.947 -0.0020  0.1222 -0.6291
18315THY     HO48330   9.213   6.038   6.900  1.1982  1.9553 -0.2606
18315THY    CA148331   9.141   6.193   6.983  1.0068 -0.2993 -0.2085
18315THY    CA248332   9.086   6.233   7.107 -0.2474  0.3825  0.2513
18315THY    CP148333   9.043   6.127   7.213  0.5864  0.1200 -0.2820
18315THY    HP148334   9.070   6.023   7.192 -0.7111 -0.6194 -0.4995
18315THY    CP248335   8.886   6.114   7.211 -0.1855 -0.2495  0.1405
18315THY    HP248336   8.859   6.043   7.289  2.6920 -1.3562 -2.3824
18315THY    HP348337   8.854   6.062   7.120 -1.2189  0.9080 -1.2994
18315THY    HP448338   8.837   6.212   7.220  0.2664  1.8857  0.2048
18315THY    CP348339   9.079   6.157   7.360 -0.1834  0.0041 -0.8568
18315THY    HP548340   9.026   6.249   7.386 -0.7254  1.0190 -1.4471
18315THY    HP648341   9.187   6.176   7.365 -0.1456 -1.7610 -0.4378
18315THY    HP748342   9.057   6.074   7.428 -0.0809  0.8838 -0.1800
18315THY    CA348343   9.066   6.368   7.137  0.4546 -0.5801 -0.4276
18315THY    HA348344   9.018   6.400   7.229 -0.6038 -0.1158 -3.0488
18315THY    CA448345   9.108   6.465   7.046  0.1108  0.6833 -0.5465
18315THY    HA448346   9.104   6.573   7.059  3.3685 -2.9363  0.2692
18315THY    CA548347   9.172   6.420   6.929  0.2760  0.3389  0.7530
18315THY    CM148348   9.236   6.520   6.845 -0.2244 -0.1284 -0.4848
18315THY    HM148349   9.224   6.623   6.880  3.3246 -1.0308  0.3698
18315THY    HM248350   9.197   6.513   6.742 -0.7376  0.1291 -1.7171
18315THY    HM348351   9.344   6.503   6.833  0.3669 -0.2446  2.7534
18315THY    CA648352   9.188   6.285   6.893  0.7765 -0.7048 -0.3460
18315THY    HA648353   9.229   6.256   6.796 -1.3727 -2.1842  1.2187
18316THY      O48354   8.486   3.127   4.672  0.2130  0.5017  0.5257
18316THY     HO48355   8.454   3.219   4.669 -0.5255  1.7109  0.3346
18316THY    CA148356   8.610   3.144   4.638 -0.3042  0.2608  0.4570
18316THY    CA248357   8.686   3.035   4.592 -0.4305 -0.2063  0.4377
18316THY    CP148358   8.627   2.894   4.604 -0.1652  0.0822  0.0736
18316THY    HP148359   8.557   2.877   4.686 -1.5595 -1.0360  0.2553
18316THY    CP248360   8.739   2.791   4.613 -0.6310 -0.4711 -0.4873
18316THY    HP248361   8.819   2.809   4.686 -1.3106  0.0876  0.3230
18316THY    HP348362   8.796   2.773   4.521  0.6826  0.2292 -0.0143
18316THY    HP448363   8.700   2.692   4.641  4.0206  1.7198 -2.0100
18316THY    CP348364   8.543   2.869   4.475 -0.2872 -0.3695  0.4362
18316THY    HP548365   8.480   2.952   4.440  2.6677 -4.1487  1.3959
18316THY    HP648366   8.468   2.796   4.507 -2.4172 -2.5761  1.4938
18316THY    HP748367   8.590   2.829   4.385 -0.2179 -0.3074  0.3763
18316THY    CA348368   8.814   3.073   4.545 -0.4988  0.0674 -0.4545
18316THY    HA348369   8.887   3.001   4.510  0.4483 -1.4027  1.1314
18316THY    CA448370   8.858   3.208   4.538 -0.0171 -0.4495 -0.2079
18316THY    HA448371   8.957   3.234   4.502  0.3476  1.3902  1.2222
18316THY    CA548372   8.773   3.310   4.578 -0.8295 -0.0178  0.1404
18316THY    CM148373   8.808   3.455   4.545  0.0453 -0.7749 -0.6441
18316THY    HM148374   8.719   3.512   4.518 -1.2223  2.2612 -0.9761
18316THY    HM248375   8.888   3.467   4.470  1.2797  0.6262  0.2108
18316THY    HM348376   8.850   3.505   4.633  3.8450 -1.8914 -1.5268
18316THY    CA648377   8.654   3.276   4.636  0.1322 -0.7218 -0.5246
18316THY    HA648378   8.595   3.353   4.684 -0.7505  0.7997 -2.0740
18317THY      O48379   0.100   2.166   2.667 -0.6307 -0.0432 -0.4708
18317THY     HO48380   0.081   2.141   2.575  0.3788 -0.3624 -0.1571
18317THY    CA148381   0.170   2.062   2.722  0.1609 -0.4072 -0.4154
18317THY    CA248382   0.223   2.076   2.854  0.4257  0.5950 -0.1005
18317THY    CP148383   0.224   2.212   2.924  0.7999  0.3903 -0.6207
18317THY    HP148384   0.234   2.291   2.850 -1.1564  0.4807 -0.2334
18317THY    CP248385   0.344   2.227   3.019 -0.3290  0.4177  0.5674
18317THY    HP248386   0.336   2.162   3.107  0.0795  0.2040  0.2205
18317THY    HP348387   0.345   2.335   3.034  1.5520  3.2764  0.2859
18317THY    HP448388   0.440   2.202   2.972 -1.2264 -2.2276  1.7614
18317THY    CP348389   0.092   2.245   3.005  0.2597  0.5232 -0.6155
18317THY    HP548390   0.004   2.209   2.950 -0.1977  0.4694  0.5359
18317THY    HP648391   0.067   2.351   3.020 -0.3520  0.2035 -0.7104
18317THY    HP748392   0.098   2.206   3.107 -1.0279  0.7943 -0.1579
18317THY    CA348393   0.259   1.962   2.924 -0.0151  0.7617  0.0788
18317THY    HA348394   0.302   1.970   3.023  1.1946  0.4968 -2.2937
18317THY    CA448395   0.254   1.841   2.856  0.0416 -0.4035 -0.0517
18317THY    HA448396   0.286   1.750   2.905  0.2045  0.5654  0.5058
18317THY    CA548397   0.221   1.838   2.719 -0.6224  0.0153  0.2578
18317THY    CM148398   0.237   1.705   2.646 -0.4976 -0.6529 -0.4848
18317THY    HM148399   0.152   1.640   2.671 -2.0693 -1.5856  1.0955
18317THY    HM248400   0.330   1.652   2.670  0.2302  2.2141  1.8425
18317THY    HM348401   0.234   1.719   2.537  1.4743 -0.7528 -0.6527
18317THY    CA648402   0.176   1.948   2.647  0.4278 -0.2317  1.1775
18317THY    HA648403   0.156   1.949   2.540  3.0718 -0.8722 -1.3341
18318THY      O48404   7.957   2.128   1.899 -0.0707 -0.4189 -0.1686
18318THY     HO48405   8.037   2.102   1.849 -0.3385 -2.1342  1.9989
18318THY    CA148406   7.923   2.253   1.857  0.3566  0.0969  0.3724
18318THY    CA248407   7.839   2.324   1.937 -0.2025  0.0012  0.1563
18318THY    CP148408   7.758   2.264   2.055  0.5505 -0.0707  0.8861
18318THY    HP148409   7.809   2.173   2.090 -1.9590  3.5313  0.6267
18318THY    CP248410   7.614   2.235   1.989 -0.7057  0.0185 -0.2351
18318THY    HP248411   7.547   2.187   2.061 -1.2187 -0.9067 -0.9405
18318THY    HP348412   7.630   2.165   1.906 -0.0092  0.3922 -0.5268
18318THY    HP448413   7.577   2.333   1.956 -2.3679  1.3394 -0.3651
18318THY    CP348414   7.743   2.342   2.177  0.1159 -0.8171  0.3270
18318THY    HP548415   7.848   2.360   2.202  0.1685 -0.8591  0.0820
18318THY    HP648416   7.685   2.287   2.252  1.3457 -1.5417 -2.0747
18318THY    HP748417   7.691   2.438   2.164  0.9605  0.2233  0.9479
18318THY    CA348418   7.809   2.456   1.902 -0.3099 -0.3722 -0.4333
18318THY    HA348419   7.728   2.505   1.954  0.4150  0.1950  0.1800
18318THY    CA448420   7.871   2.507   1.782  0.3288 -0.5024  0.1660
18318THY    HA448421   7.859   2.611   1.753 -2.0349 -0.4889 -0.0336
18318THY    CA548422   7.960   2.428   1.707  0.1577 -0.2263 -0.6983
18318THY    CM148423   8.028   2.494   1.582 -0.3121  0.0830  0.1138
18318THY    HM148424   7.957   2.540   1.512  0.7913 -1.0933  0.0906
18318THY    HM248425   8.090   2.432   1.517 -1.8663 -1.2100 -0.1691
18318THY    HM348426   8.091   2.579   1.610  0.1832 -1.2143  0.1943
18318THY    CA648427   7.985   2.299   1.742  0.0981  0.3357 -0.1150
18318THY    HA648428   8.048   2.233   1.682 -1.5144  0.7934 -2.2003
18319THY      O48429   2.467   5.962   3.204  0.5769  0.5485 -0.2665
18319THY     HO48430   2.436   5.898   3.269 -0.1116  0.8886  0.3970
18319THY    CA148431   2.556   6.045   3.260  0.1743  0.1646  0.5496
18319THY    CA248432   2.581   6.168   3.207 -0.3575  0.0254  0.1069
18319THY    CP148433   2.514   6.214   3.075 -0.6176 -0.8451 -0.4209
18319THY    HP148434   2.424   6.157   3.053 -1.8628  0.4671  0.9635
18319THY    CP248435   2.608   6.160   2.968 -0.2521  0.3149 -0.3232
18319THY    HP248436   2.563   6.162   2.868 -1.6442  0.9090 -0.6443
18319THY    HP348437   2.641   6.058   2.987  4.6953 -0.7154  0.8090
18319THY    HP448438   2.704   6.212   2.957  0.6550  0.3485 -1.9295
18319THY    CP348439   2.497   6.363   3.054  0.4559 -0.5641 -0.2188
18319THY    HP548440   2.583   6.428   3.073 -2.1088 -1.5341  3.7639
18319THY    HP648441   2.411   6.402   3.109  1.1832  0.8486 -0.5295
18319THY    HP748442   2.471   6.383   2.950  0.8244 -0.7114 -0.4978
18319THY    CA348443   2.681   6.242   3.270 -0.2274  0.3131 -0.0965
18319THY    HA348444   2.704   6.339   3.228 -0.6957  2.1274  0.8328
18319THY    CA448445   2.752   6.194   3.382  0.7442  0.0059 -0.2471
18319THY    HA448446   2.827   6.255   3.431 -2.0271  1.6461  2.1662
18319THY    CA548447   2.712   6.074   3.438  0.7253 -0.1756 -0.5457
18319THY    CM148448   2.776   6.024   3.565 -0.2644 -1.1496  0.2072
18319THY    HM148449   2.773   6.090   3.652 -0.9816  2.1967 -3.8777
18319THY    HM248450   2.882   6.005   3.546  0.2690  2.1397 -0.5802
18319THY    HM348451   2.737   5.932   3.610 -1.4814  2.1281  2.1717
18319THY    CA648452   2.611   6.002   3.380 -0.5519 -0.4464  0.0393
18319THY    HA648453   2.576   5.909   3.424  2.4924  1.3938 -0.3945
18320THY      O48454   5.531   3.111   7.235 -0.0414  0.1067 -0.1494
18320THY     HO48455   5.542   3.201   7.270 -1.6360  0.3070 -0.0024
18320THY    CA148456   5.624   3.035   7.285  0.2187 -0.6618 -0.4840
18320THY    CA248457   5.614   2.893   7.290 -0.3064 -0.2659 -0.0869
18320THY    CP148458   5.500   2.808   7.231 -0.8010 -0.2319 -0.0008
18320THY    HP148459   5.428   2.872   7.180  0.1636 -3.0819 -1.0219
18320THY    CP248460   5.427   2.727   7.343 -0.3164  0.4184  0.1646
18320THY    HP248461   5.449   2.767   7.442 -2.4560  1.2883 -0.6626
18320THY    HP348462   5.472   2.627   7.343  1.6558 -2.2547  0.9410
18320THY    HP448463   5.317   2.735   7.337 -0.1946  0.4576  2.5990
18320THY    CP348464   5.546   2.706   7.121  0.3716  0.3921  0.0454
18320THY    HP548465   5.589   2.614   7.163  0.2052 -0.6367 -0.5104
18320THY    HP648466   5.617   2.760   7.059  0.8906 -0.3143 -1.4059
18320THY    HP748467   5.459   2.682   7.058  0.8692 -0.2536 -0.0719
18320THY    CA348468   5.719   2.827   7.354  0.0997 -0.5837  0.0036
18320THY    HA348469   5.721   2.719   7.368  1.7101  1.4505  0.2299
18320THY    CA448470   5.829   2.890   7.399 -0.0213  0.2453  0.2743
18320THY    HA448471   5.906   2.835   7.454 -0.0307 -1.1038 -1.1425
18320THY    CA548472   5.840   3.032   7.396 -0.4488  0.4723 -0.1573
18320THY    CM148473   5.949   3.105   7.460 -0.6789  0.0594 -1.1883
18320THY    HM148474   6.043   3.111   7.404 -2.5455 -3.1983 -0.1543
18320THY    HM248475   5.959   3.058   7.559  1.1658 -0.0967 -1.2159
18320THY    HM348476   5.935   3.211   7.484  0.0973 -0.9859 -0.8307
18320THY    CA648477   5.739   3.102   7.338 -0.2832 -0.1595  0.0362
18320THY    HA648478   5.756   3.208   7.348  1.6987  2.1216 -0.4217
18321THY      O48479   7.127   5.121   2.555  0.1671  0.3311  1.0195
18321THY     HO48480   7.070   5.127   2.477 -0.0577  0.1150 -2.1650
18321THY    CA148481   7.062   5.045   2.642 -0.5280  0.2028  0.0641
18321THY    CA248482   7.116   5.026   2.770  0.2892 -0.2014  0.0858
18321THY    CP148483   7.231   5.106   2.813 -0.0180 -0.1896 -0.3553
18321THY    HP148484   7.242   5.193   2.747  0.3515 -2.4623 -2.0388
18321THY    CP248485   7.359   5.024   2.794 -0.2694 -0.0048  0.4058
18321THY    HP248486   7.358   4.993   2.689  2.0772 -0.1271  0.5882
18321THY    HP348487   7.362   4.934   2.857  0.5019 -1.6498 -0.7547
18321THY    HP448488   7.446   5.090   2.805  0.7203 -1.0063 -0.6934
18321THY    CP348489   7.222   5.151   2.958 -0.0306  0.1226  0.1492
18321THY    HP548490   7.240   5.068   3.027  5.3477 -0.2187  0.7097
18321THY    HP648491   7.134   5.210   2.986 -0.4916 -0.0178 -0.4592
18321THY    HP748492   7.305   5.220   2.974  2.3342 -0.0779 -2.4466
18321THY    CA348493   7.057   4.929   2.859  0.0098  1.2390  0.5194
18321THY    HA348494   7.100   4.905   2.956  3.2731 -0.0846  0.4136
18321THY    CA448495   6.929   4.873   2.817 -0.1677  0.2630  0.2604
18321THY    HA448496   6.883   4.797   2.880 -0.7241 -0.4847 -0.0283
18321THY    CA548497   6.870   4.898   2.690 -0.6556  0.3824 -0.3334
18321THY    CM148498   6.734   4.844   2.658 -0.3995  0.0252  0.6156
18321THY    HM148499   6.705   4.870   2.555 -3.0804  0.2980 -0.9134
18321THY    HM248500   6.661   4.902   2.716 -0.2500  0.2765  0.5537
18321THY    HM348501   6.718   4.737   2.675 -0.7861  1.3822  0.8780
18321THY    CA648502   6.937   4.990   2.606 -1.1181 -0.4518  0.4151
18321THY    HA648503   6.898   5.003   2.506 -1.1139 -0.5925 -0.6260
18322THY      O48504   0.979   8.832   3.997  0.6597 -0.0632 -1.1122
18322THY     HO48505   0.891   8.812   3.961 -0.0215  1.4938 -1.0368
18322THY    CA148506   0.971   8.968   3.997 -0.1967 -0.1057  0.2923
18322THY    CA248507   1.098   9.034   4.013  0.0385  0.3345  0.1689
18322THY    CP148508   1.237   8.951   4.015 -0.6001 -0.3708 -0.0903
18322THY    HP148509   1.220   8.855   4.066 -1.4035  0.1586  0.3258
18322THY    CP248510   1.342   9.017   4.110  0.4042  0.0826  0.1743
18322THY    HP248511   1.427   8.955   4.140 -0.4908  2.7473  0.1158
18322THY    HP348512   1.300   9.024   4.211  0.9304  0.2111  1.9795
18322THY    HP448513   1.375   9.114   4.070 -0.5394  0.8099  0.8088
18322THY    CP348514   1.292   8.935   3.875  0.4192 -0.0751 -0.5140
18322THY    HP548515   1.209   8.893   3.818  0.1395 -0.2711  0.2906
18322THY    HP648516   1.372   8.859   3.879  1.2313  0.9635  0.3589
18322THY    HP748517   1.322   9.027   3.824 -1.2251 -1.4339 -0.7027
18322THY    CA348518   1.092   9.179   4.021  0.0380 -0.2924  0.0451
18322THY    HA348519   1.184   9.235   4.025  0.2535 -2.0823 -0.1519
18322THY    CA448520   0.973   9.251   4.004  0.3194 -0.3411  0.0277
18322THY    HA448521   0.958   9.356   4.023 -1.0792 -1.2683  0.0329
18322THY    CA548522   0.851   9.183   3.977  0.4888 -0.6051  0.2968
18322THY    CM148523   0.717   9.246   3.966  1.0769 -0.0111  0.7102
18322THY    HM148524   0.644   9.211   4.041  0.0883 -0.6178  1.4236
18322THY    HM248525   0.694   9.205   3.867  1.1081  0.1052  0.4031
18322THY    HM348526   0.721   9.355   3.955 -4.2045  1.5550  1.3880
18322THY    CA648527   0.848   9.041   3.975 -0.3109 -0.6319  0.2572
18322THY    HA648528   0.755   8.988   3.958 -0.5491 -0.6802  0.6939
18323THY      O48529   6.509   5.723   4.721 -0.7356 -0.4203  0.5072
18323THY     HO48530   6.577   5.714   4.791 -2.6379  2.0762  3.5460
18323THY    CA148531   6.481   5.605   4.664  0.1596  0.4039 -0.0514
18323THY    CA248532   6.461   5.586   4.523 -0.5209 -0.6698  0.0406
18323THY    CP148533   6.476   5.704   4.429  0.7778 -0.1295 -0.2019
18323THY    HP148534   6.489   5.796   4.488 -0.3218  1.7347 -1.1912
18323THY    CP248535   6.339   5.743   4.355 -0.4287 -0.1412 -0.2730
18323THY    HP248536   6.277   5.799   4.425  0.3122 -1.6831  2.6716
18323THY    HP348537   6.284   5.655   4.318  0.5187 -0.5807 -0.7002
18323THY    HP448538   6.363   5.807   4.269  0.2508  1.3996  1.6212
18323THY    CP348539   6.594   5.685   4.325  0.5187 -0.1543  0.1441
18323THY    HP548540   6.559   5.612   4.252 -1.5247 -0.3143  1.2300
18323THY    HP648541   6.687   5.646   4.370 -0.1682 -1.2989 -3.1501
18323THY    HP748542   6.619   5.772   4.264  2.9226  0.9660  0.3217
18323THY    CA348543   6.423   5.461   4.472  0.3906  0.5109 -0.2823
18323THY    HA348544   6.397   5.448   4.367 -0.1364  0.8094 -1.8901
18323THY    CA448545   6.412   5.353   4.563  0.2594 -0.3160 -0.2585
18323THY    HA448546   6.372   5.262   4.520  0.7547 -1.9185  0.2433
18323THY    CA548547   6.422   5.370   4.706  0.5784 -0.4370 -0.8742
18323THY    CM148548   6.406   5.257   4.798 -0.2076 -0.6614  0.1422
18323THY    HM148549   6.411   5.284   4.904 -0.2114 -0.4729 -0.5806
18323THY    HM248550   6.495   5.194   4.793  0.6827 -0.1117  1.3228
18323THY    HM348551   6.310   5.209   4.775 -0.0512 -0.8825 -0.0656
18323THY    CA648552   6.457   5.497   4.750 -0.6741  0.1735 -0.4308
18323THY    HA648553   6.467   5.516   4.857  0.2207  0.1654 -0.8109
18324THY      O48554   1.625   5.652   6.762  0.1579  0.5327 -0.0121
18324THY     HO48555   1.613   5.746   6.740  0.1157  0.8944  0.0705
18324THY    CA148556   1.600   5.637   6.895 -1.0761  0.1472 -0.1654
18324THY    CA248557   1.682   5.545   6.972  0.4966  0.1856 -0.4227
18324THY    CP148558   1.789   5.459   6.904  0.2643 -0.5880  0.2511
18324THY    HP148559   1.778   5.473   6.796  1.0667 -0.6293  0.6671
18324THY    CP248560   1.769   5.317   6.943  0.1557  0.1484  0.1379
18324THY    HP248561   1.667   5.288   6.916 -0.7807  3.0835  0.4219
18324THY    HP348562   1.787   5.305   7.050  0.1121  0.2526  0.9096
18324THY    HP448563   1.836   5.254   6.883  0.0509 -0.4119  0.5507
18324THY    CP348564   1.935   5.500   6.936 -0.1433 -0.5113  0.0928
18324THY    HP548565   1.952   5.494   7.044 -1.1997 -0.3183  0.2867
18324THY    HP648566   1.958   5.605   6.913  1.2001  1.5884  0.3079
18324THY    HP748567   1.998   5.428   6.882  0.2272  0.1864 -0.1084
18324THY    CA348568   1.654   5.546   7.111 -0.2353 -0.1114  0.2268
18324THY    HA348569   1.725   5.484   7.165  1.3263 -4.4673 -2.2565
18324THY    CA448570   1.550   5.628   7.165  1.0818 -0.5867 -0.6398
18324THY    HA448571   1.530   5.616   7.271 -0.7101 -1.0303 -1.9552
18324THY    CA548572   1.471   5.702   7.079  0.8643  0.2840  1.0904
18324THY    CM148573   1.364   5.783   7.130 -1.1143  0.2069 -0.2855
18324THY    HM148574   1.351   5.784   7.239 -0.4801  0.2969  1.7619
18324THY    HM248575   1.273   5.749   7.077  0.4851 -1.3056 -2.5101
18324THY    HM348576   1.392   5.884   7.101 -0.5428 -1.3987 -0.8679
18324THY    CA648577   1.498   5.711   6.947 -1.0010 -0.2105  0.3060
18324THY    HA648578   1.429   5.757   6.876 -0.6953 -2.0245 -1.8168
18325THY      O48579   6.016   4.139   5.427  0.0102  0.5664  0.1295
18325THY     HO48580   6.021   4.142   5.524 -0.4098  0.6860 -1.6782
18325THY    CA148581   6.126   4.069   5.387 -0.1742 -0.2623 -0.1559
18325THY    CA248582   6.141   3.999   5.264 -0.2171  0.0170  0.5283
18325THY    CP148583   6.034   4.014   5.158  1.0270 -0.9065 -0.1646
18325THY    HP148584   5.962   4.089   5.193  1.9745 -0.4033  0.5270
18325THY    CP248585   5.941   3.894   5.148 -0.4737  0.1101 -0.1725
18325THY    HP248586   5.895   3.872   5.245 -0.5153  0.7601  2.4568
18325THY    HP348587   5.997   3.803   5.125 -2.3100 -0.9115 -1.1117
18325THY    HP448588   5.862   3.916   5.075  1.6510 -2.0579  0.6949
18325THY    CP348589   6.091   4.069   5.026  0.8570 -0.3605  0.3211
18325THY    HP548590   6.179   4.134   5.036  1.4384 -0.1433 -0.4787
18325THY    HP648591   6.016   4.115   4.961 -0.1212 -0.3313 -1.1632
18325THY    HP748592   6.127   3.985   4.965  0.2624 -0.4496  0.1271
18325THY    CA348593   6.258   3.920   5.240  0.4700 -0.2835 -1.0353
18325THY    HA348594   6.277   3.859   5.152  1.4084  0.4158 -1.7865
18325THY    CA448595   6.349   3.903   5.342 -0.3107 -0.1327  0.0825
18325THY    HA448596   6.430   3.832   5.331 -1.0489 -0.5450 -0.7157
18325THY    CA548597   6.341   3.979   5.456  0.2316 -0.0600  0.4391
18325THY    CM148598   6.444   3.967   5.573  0.0171 -0.4880 -0.4155
18325THY    HM148599   6.522   3.895   5.546  0.8471 -0.3406  0.4051
18325THY    HM248600   6.388   3.930   5.660 -0.6689 -1.2681 -1.2900
18325THY    HM348601   6.487   4.061   5.609 -3.2617  3.5804 -0.1626
18325THY    CA648602   6.232   4.061   5.477  0.0420  0.0893  0.1047
18325THY    HA648603   6.229   4.126   5.564  0.4152 -1.0046  1.6386
18326THY      O48604   4.139   2.555   5.378 -0.3660  0.3067  0.1914
18326THY     HO48605   4.156   2.471   5.331 -2.2003 -1.5846  0.7651
18326THY    CA148606   4.201   2.556   5.500  0.9071 -0.4454 -0.5989
18326THY    CA248607   4.129   2.596   5.613  1.0483 -0.2126  0.2035
18326THY    CP148608   3.987   2.643   5.598  0.5989 -0.6586 -0.0478
18326THY    HP148609   3.947   2.581   5.516 -0.0434  0.9037 -1.8176
18326THY    CP248610   3.977   2.787   5.556 -0.1961 -0.7565 -0.5598
18326THY    HP248611   3.878   2.820   5.522  0.9640 -0.4126  3.9293
18326THY    HP348612   4.038   2.806   5.467  0.4843 -0.5343 -1.6354
18326THY    HP448613   4.021   2.849   5.634 -0.6256  0.8783 -2.2189
18326THY    CP348614   3.887   2.631   5.719 -0.4561  0.2678  0.4239
18326THY    HP548615   3.878   2.530   5.761 -3.4031  0.0595  0.5158
18326THY    HP648616   3.786   2.660   5.690 -1.4982  0.2946 -2.7604
18326THY    HP748617   3.916   2.698   5.801  2.3434 -0.8332  0.7045
18326THY    CA348618   4.197   2.604   5.738 -0.2952  0.0283  0.3224
18326THY    HA348619   4.145   2.636   5.828 -0.1030  0.4862 -0.6257
18326THY    CA448620   4.325   2.553   5.752 -0.7318 -0.1743 -0.2637
18326THY    HA448621   4.363   2.558   5.854  0.2403 -0.4307 -1.7882
18326THY    CA548622   4.392   2.492   5.639  0.1586 -0.8949 -0.4937
18326THY    CM148623   4.527   2.438   5.657 -0.0376  0.9095 -0.5746
18326THY    HM148624   4.543   2.387   5.753  0.3685  1.1654  0.0328
18326THY    HM248625   4.605   2.511   5.635 -0.1154 -0.7714 -0.9544
18326THY    HM348626   4.531   2.356   5.583 -1.6586  1.6142 -1.3510
18326THY    CA648627   4.328   2.504   5.517 -0.3477  0.0606 -0.5112
18326THY    HA648628   4.383   2.469   5.430 -1.0789 -1.4597  1.8604
18327THY      O48629   7.026   1.526   3.355 -0.0172  0.0878 -0.1265
18327THY     HO48630   6.999   1.477   3.275 -1.2575  0.1360  0.4434
18327THY    CA148631   7.142   1.592   3.324 -0.2561  0.5372 -0.3070
18327THY    CA248632   7.243   1.616   3.417 -0.2375 -0.3266 -0.3112
18327THY    CP148633   7.242   1.556   3.562 -0.1580  0.2672 -0.5528
18327THY    HP148634   7.154   1.491   3.575  0.8895  0.7178 -1.9109
18327THY    CP248635   7.227   1.670   3.670  0.3501 -0.4072  0.4615
18327THY    HP248636   7.130   1.722   3.673 -0.6878  0.2116 -1.4079
18327THY    HP348637   7.295   1.753   3.650  1.3173  0.9869  0.0442
18327THY    HP448638   7.247   1.634   3.772  0.2165  0.1645  1.9123
18327THY    CP348639   7.354   1.455   3.579  0.5200 -0.1285  0.0912
18327THY    HP548640   7.453   1.492   3.549  0.9301  0.5925 -0.3939
18327THY    HP648641   7.335   1.364   3.521 -0.8391 -2.6419  1.8684
18327THY    HP748642   7.359   1.428   3.686 -0.1235  0.5298  2.3342
18327THY    CA348643   7.357   1.693   3.380 -0.2260 -0.0729 -0.0450
18327THY    HA348644   7.439   1.721   3.446 -0.9971  0.8090  0.1680
18327THY    CA448645   7.370   1.734   3.247  0.1531 -0.2425  0.3100
18327THY    HA448646   7.463   1.774   3.208  0.4943  1.4471  1.2381
18327THY    CA548647   7.268   1.721   3.160  0.3069 -0.1359  0.2870
18327THY    CM148648   7.277   1.765   3.021 -0.3635  0.5402 -0.5121
18327THY    HM148649   7.231   1.863   3.009  3.4781  0.8794  1.5213
18327THY    HM248650   7.232   1.687   2.958  1.8125 -1.7649 -0.0321
18327THY    HM348651   7.379   1.773   2.981 -0.2724  0.7651 -0.5264
18327THY    CA648652   7.153   1.651   3.196  0.6902 -0.0773  0.1527
18327THY    HA648653   7.071   1.649   3.124  0.4734  0.1394 -2.5646
18328THY      O48654   2.168   5.997   7.618  0.1447  0.7795 -0.2396
18328THY     HO48655   2.163   6.024   7.524 -0.4530  0.5652 -1.0604
18328THY    CA148656   2.286   5.932   7.646 -0.2356  0.2136 -0.1377
18328THY    CA248657   2.369   5.973   7.751 -0.0035  0.3674 -0.3396
18328THY    CP148658   2.347   6.101   7.827 -0.3694  0.4599 -0.6296
18328THY    HP148659   2.238   6.114   7.830 -0.4364  2.0656 -1.3678
18328THY    CP248660   2.395   6.220   7.755 -0.3072  0.6493 -0.1183
18328THY    HP248661   2.340   6.312   7.778  0.5172  0.9241  0.3189
18328THY    HP348662   2.380   6.201   7.648  0.7553  0.9199 -2.9779
18328THY    HP448663   2.503   6.228   7.771  0.2996 -1.6389 -2.4868
18328THY    CP348664   2.402   6.099   7.972 -0.2119 -0.1340 -0.0255
18328THY    HP548665   2.374   6.007   8.024  0.4469  1.3831  0.5961
18328THY    HP648666   2.363   6.191   8.016 -0.1935 -2.0502  0.9620
18328THY    HP748667   2.511   6.103   7.984  0.2116 -3.3928  1.0068
18328THY    CA348668   2.491   5.903   7.769  0.2693  0.7358 -0.6530
18328THY    HA348669   2.565   5.929   7.844  1.3230 -0.9973  1.6419
18328THY    CA448670   2.517   5.786   7.698 -0.0650 -0.0299  0.7733
18328THY    HA448671   2.595   5.718   7.731 -0.5998 -0.2732  0.0272
18328THY    CA548672   2.436   5.746   7.589 -0.7562  0.3520 -1.1082
18328THY    CM148673   2.464   5.631   7.488 -0.0966 -0.1957 -1.0278
18328THY    HM148674   2.369   5.582   7.465 -0.1595 -0.5963 -0.7233
18328THY    HM248675   2.526   5.561   7.545 -1.2358  0.7121 -1.3338
18328THY    HM348676   2.516   5.673   7.401 -0.4890 -0.3593 -0.8776
18328THY    CA648677   2.325   5.825   7.561  0.4061 -0.3768 -0.3411
18328THY    HA648678   2.258   5.792   7.483 -1.4905  1.0574 -0.0868
18329THY      O48679   4.928   1.899   2.531  0.4287  0.3960  0.1684
18329THY     HO48680   4.920   1.974   2.592  1.3121  1.8671 -0.8899
18329THY    CA148681   4.925   1.797   2.610  1.1922 -0.4908 -0.4790
18329THY    CA248682   4.921   1.667   2.557  0.6324 -0.4899 -0.3168
18329THY    CP148683   4.962   1.637   2.412  0.0767 -0.3866 -0.5415
18329THY    HP148684   4.956   1.733   2.358  2.1639 -2.7587 -1.6097
18329THY    CP248685   4.863   1.541   2.348 -0.4530  0.5677  0.2049
18329THY    HP248686   4.761   1.580   2.349 -1.0625  3.7310 -1.1759
18329THY    HP348687   4.860   1.447   2.404 -1.1442  0.4992  0.1807
18329THY    HP448688   4.901   1.528   2.246 -0.9129  0.4973 -0.6349
18329THY    CP348689   5.113   1.593   2.402 -0.6372  0.0794  0.0566
18329THY    HP548690   5.140   1.590   2.295  0.4323  0.3238 -3.5305
18329THY    HP648691   5.139   1.493   2.437 -0.6971 -1.1153 -0.3975
18329THY    HP748692   5.180   1.657   2.461 -1.2327  0.7828  0.0341
18329THY    CA348693   4.918   1.557   2.646  0.3210 -0.0390  0.1999
18329THY    HA348694   4.927   1.460   2.598 -0.7427 -0.3546  0.2360
18329THY    CA448695   4.905   1.580   2.781 -0.3222 -0.8927  0.0632
18329THY    HA448696   4.894   1.492   2.843  0.2896 -1.9202 -0.7660
18329THY    CA548697   4.913   1.712   2.833 -0.5779 -1.0985  1.0009
18329THY    CM148698   4.892   1.747   2.985  0.5421  0.4227 -0.5478
18329THY    HM148699   4.885   1.665   3.057  1.2791  0.2785 -0.7492
18329THY    HM248700   4.789   1.782   2.995  0.1972 -1.0009 -1.0988
18329THY    HM348701   4.974   1.810   3.021  1.8614  0.3451 -2.1591
18329THY    CA648702   4.910   1.812   2.746  0.1185 -0.3920 -0.4391
18329THY    HA648703   4.896   1.909   2.794 -0.6531  0.4219 -0.9421
18330THY      O48704   1.408   2.404   7.703 -0.0874  0.1967 -0.3693
18330THY     HO48705   1.403   2.470   7.633  0.8752  1.1186  0.7319
18330THY    CA148706   1.536   2.406   7.725 -0.9791 -0.4159  0.7034
18330THY    CA248707   1.613   2.290   7.721  0.5761  0.2675  0.0107
18330THY    CP148708   1.545   2.154   7.694  0.9804  0.0688  0.6660
18330THY    HP148709   1.436   2.153   7.694  0.8968  0.8929 -2.4596
18330THY    CP248710   1.578   2.050   7.802  1.1338 -0.3561 -0.1299
18330THY    HP248711   1.571   2.091   7.904  0.6255 -0.1900 -0.6005
18330THY    HP348712   1.682   2.019   7.790  0.6408 -1.3971 -1.4821
18330THY    HP448713   1.505   1.968   7.795  0.7540 -0.8408  0.2423
18330THY    CP348714   1.578   2.097   7.553 -0.1346  0.5608 -0.7058
18330THY    HP548715   1.513   2.014   7.521  0.3287 -1.4931 -0.3285
18330THY    HP648716   1.683   2.072   7.533  0.2600 -1.5170  2.1428
18330THY    HP748717   1.560   2.168   7.471 -0.1557  0.1002 -1.2378
18330THY    CA348718   1.748   2.299   7.746  0.3013 -0.2435  0.2190
18330THY    HA348719   1.799   2.205   7.727 -1.4248 -1.5700 -0.4982
18330THY    CA448720   1.817   2.426   7.751  0.7685 -0.0687  0.0927
18330THY    HA448721   1.919   2.424   7.788  0.1495  1.7218 -0.0338
18330THY    CA548722   1.743   2.546   7.743  0.4638 -0.0402  0.1306
18330THY    CM148723   1.824   2.674   7.760  0.3531  0.4974 -0.7761
18330THY    HM148724   1.760   2.732   7.827  0.8896  1.0057 -0.7623
18330THY    HM248725   1.835   2.730   7.667 -1.5120  1.3188  1.1187
18330THY    HM348726   1.920   2.657   7.811  0.5430  0.1828 -0.6535
18330THY    CA648727   1.603   2.534   7.740  0.1348 -0.0737  0.3605
18330THY    HA648728   1.537   2.620   7.745  0.6154  0.4513  0.7089
18331THY      O48729   3.376   8.605   4.861 -0.5749 -0.0495 -0.1014
18331THY     HO48730   3.303   8.625   4.921 -1.7349 -0.8906 -1.5679
18331THY    CA148731   3.451   8.526   4.936  1.0122  0.0671  0.0206
18331THY    CA248732   3.589   8.503   4.909  0.0041  0.4074 -0.1162
18331THY    CP148733   3.652   8.568   4.789 -0.4232  0.1739  0.1490
18331THY    HP148734   3.581   8.617   4.723  0.4746 -0.8700  0.0853
18331THY    CP248735   3.729   8.470   4.705 -0.5286 -0.4376  0.0731
18331THY    HP248736   3.809   8.434   4.771 -1.8750  1.0873 -0.2543
18331THY    HP348737   3.770   8.514   4.614 -2.4318 -1.1219  0.5313
18331THY    HP448738   3.668   8.380   4.692 -0.4859 -1.2128  0.1509
18331THY    CP348739   3.741   8.683   4.835  0.7624  0.9092 -0.4262
18331THY    HP548740   3.836   8.649   4.878  1.8442  1.7178  3.1545
18331THY    HP648741   3.690   8.767   4.884 -0.2753  0.8725 -1.0294
18331THY    HP748742   3.779   8.738   4.748 -0.8456  0.0437 -0.6355
18331THY    CA348743   3.657   8.424   5.005  0.3035  0.2115 -0.6132
18331THY    HA348744   3.765   8.412   5.001  0.3048 -0.1836 -0.4747
18331THY    CA448745   3.580   8.365   5.111 -0.6868 -0.8658  0.8275
18331THY    HA448746   3.626   8.304   5.188  0.8783 -0.9920  1.7918
18331THY    CA548747   3.435   8.376   5.111 -0.3555 -0.5122  0.3965
18331THY    CM148748   3.364   8.310   5.220  0.0702 -0.9483  0.2209
18331THY    HM148749   3.258   8.301   5.194 -0.6032  1.2984  1.2168
18331THY    HM248750   3.356   8.379   5.304  0.7781 -0.7028  0.0255
18331THY    HM348751   3.408   8.212   5.245 -2.2566 -0.8271 -0.8575
18331THY    CA648752   3.372   8.464   5.032  0.2285  0.6485 -1.1512
18331THY    HA648753   3.267   8.486   5.045  0.5801  2.5366 -0.3801
18332THY      O48754   6.140   4.956   3.823 -0.4744 -0.1444 -0.2317
18332THY     HO48755   6.125   4.869   3.784  2.7975 -0.0867 -0.9587
18332THY    CA148756   6.060   4.967   3.931 -0.0841 -0.1721  0.1674
18332THY    CA248757   6.100   5.021   4.053  0.3037 -0.9078 -0.6000
18332THY    CP148758   6.240   5.067   4.056  0.0210 -0.4414 -0.4212
18332THY    HP148759   6.303   5.005   3.990 -2.1846 -2.7015 -0.4309
18332THY    CP248760   6.312   5.070   4.195 -0.0338  0.6273 -0.2311
18332THY    HP248761   6.282   4.981   4.251 -0.5018 -0.3280 -0.6775
18332THY    HP348762   6.297   5.165   4.248  1.1747  0.5178  0.0446
18332THY    HP448763   6.422   5.070   4.189  0.0717  2.1649 -0.8896
18332THY    CP348764   6.242   5.213   4.006  0.7060  0.6276  0.4229
18332THY    HP548765   6.165   5.274   4.056 -1.0060  2.1017 -2.7160
18332THY    HP648766   6.215   5.219   3.900 -0.3605  0.7170 -1.9064
18332THY    HP748767   6.341   5.259   4.020  0.2066  0.0490  1.7212
18332THY    CA348768   6.007   5.024   4.163 -1.1307  0.0561 -0.0205
18332THY    HA348769   6.031   5.069   4.259  0.2591 -0.0434 -0.5078
18332THY    CA448770   5.879   4.968   4.145 -0.0687 -0.2066 -0.1651
18332THY    HA448771   5.803   4.972   4.223 -1.3262 -1.4302  0.6724
18332THY    CA548772   5.843   4.916   4.020 -0.2739 -1.0889  0.5037
18332THY    CM148773   5.712   4.842   4.013 -0.3988  0.1900 -1.0451
18332THY    HM148774   5.691   4.784   4.104 -0.3113 -0.7314 -2.6011
18332THY    HM248775   5.708   4.767   3.933 -0.8197  0.2554 -1.0922
18332THY    HM348776   5.634   4.914   3.988 -1.3205  0.2812 -1.9876
18332THY    CA648777   5.937   4.901   3.921 -0.1798  0.9902  0.1406
18332THY    HA648778   5.906   4.850   3.830  0.2631  0.5589  0.6384
18333THY      O48779   4.504   7.117   6.663  0.6821  0.8039  0.0485
18333THY     HO48780   4.598   7.110   6.638  0.5291 -0.0606  0.8786
18333THY    CA148781   4.447   7.017   6.602  0.5503 -0.2094  0.7310
18333THY    CA248782   4.336   6.945   6.656  0.6659 -0.5247 -0.0324
18333THY    CP148783   4.285   6.982   6.796 -0.2318 -0.2493 -0.0496
18333THY    HP148784   4.308   7.082   6.834  3.0202  0.4526 -0.9434
18333THY    CP248785   4.360   6.898   6.899 -0.7395  0.3064  0.1994
18333THY    HP248786   4.298   6.909   6.989 -3.3275 -1.0638 -1.9197
18333THY    HP348787   4.463   6.928   6.921 -0.7428  1.8127 -0.7774
18333THY    HP448788   4.370   6.793   6.869  4.0544 -0.1518  0.5343
18333THY    CP348789   4.132   6.962   6.818  0.0730  0.2098 -0.1488
18333THY    HP548790   4.110   6.855   6.817  0.6905 -1.8934 -0.3006
18333THY    HP648791   4.083   7.006   6.730  0.3459  0.0983 -0.0630
18333THY    HP748792   4.102   7.014   6.909  0.4921 -0.3346  1.0852
18333THY    CA348793   4.291   6.832   6.595  1.1227  0.2128  0.3126
18333THY    HA348794   4.223   6.760   6.641  0.2847 -1.1999  0.1661
18333THY    CA448795   4.334   6.803   6.463 -0.4936 -0.1798  0.9059
18333THY    HA448796   4.296   6.721   6.404  0.6320 -2.3998  1.8989
18333THY    CA548797   4.425   6.886   6.397 -0.7378 -0.1689 -0.4654
18333THY    CM148798   4.480   6.854   6.264 -0.1447  0.2275 -0.8708
18333THY    HM148799   4.405   6.804   6.203 -0.0020 -1.6277  1.0240
18333THY    HM248800   4.561   6.781   6.275 -1.2598  1.9257 -1.9204
18333THY    HM348801   4.497   6.951   6.215 -0.4423  2.3925  0.3424
18333THY    CA648802   4.477   6.992   6.471 -0.2596  0.0170 -0.7003
18333THY    HA648803   4.559   7.051   6.431 -0.3412 -0.9189 -1.2166
18334THY      O48804   3.162   1.110   5.095 -0.2743 -0.0777  0.3850
18334THY     HO48805   3.076   1.149   5.070 -1.2704  2.8856  0.3328
18334THY    CA148806   3.230   1.101   4.981  0.5479  0.2735  0.4973
18334THY    CA248807   3.361   1.050   4.969 -0.1737  0.0406  0.1526
18334THY    CP148808   3.445   1.032   5.097  0.4684  0.2493  0.0587
18334THY    HP148809   3.426   1.111   5.171 -1.0610  0.8488 -0.8115
18334THY    CP248810   3.591   1.061   5.072 -0.5213 -0.7178  0.4063
18334THY    HP248811   3.639   0.982   5.013  1.0936 -1.7239  2.0981
18334THY    HP348812   3.640   1.067   5.170  0.7015 -1.2995  0.2435
18334THY    HP448813   3.601   1.158   5.024  1.2980  0.9835  1.1354
18334THY    CP348814   3.436   0.889   5.162  0.4388  0.3206 -0.1747
18334THY    HP548815   3.375   0.820   5.103 -0.8097  0.5758  0.6635
18334THY    HP648816   3.391   0.907   5.261 -0.3522 -0.1889  0.8174
18334THY    HP748817   3.535   0.843   5.173 -0.2674  1.4524 -1.5010
18334THY    CA348818   3.412   1.036   4.838  0.1315  0.1895 -0.2847
18334THY    HA348819   3.514   1.003   4.818 -0.2817 -0.9472 -0.9069
18334THY    CA448820   3.332   1.064   4.727 -0.5103 -0.1454  0.7400
18334THY    HA448821   3.365   1.046   4.625 -1.4868 -0.4892  0.8377
18334THY    CA548822   3.194   1.090   4.744 -0.2188  0.6869 -0.4309
18334THY    CM148823   3.103   1.110   4.618 -0.9064 -0.0590  0.1253
18334THY    HM148824   2.998   1.095   4.647 -2.6421 -3.6461  3.5710
18334THY    HM248825   3.132   1.036   4.542  0.2222  1.2185 -0.7984
18334THY    HM348826   3.122   1.210   4.577 -2.0894  1.1822  0.8877
18334THY    CA648827   3.145   1.100   4.873  0.0650  0.5569 -0.3523
18334THY    HA648828   3.038   1.115   4.881 -0.2320 -3.3323  0.6106
18335THY      O48829   2.262   4.439   6.400  0.0739  0.0228 -0.1838
18335THY     HO48830   2.181   4.395   6.431 -0.6562 -0.4312  0.8200
18335THY    CA148831   2.252   4.565   6.461  0.8727 -0.4970  0.9658
18335THY    CA248832   2.341   4.674   6.448  0.3669 -0.2949 -0.1618
18335THY    CP148833   2.451   4.656   6.345  0.0585  0.1744 -0.8558
18335THY    HP148834   2.425   4.570   6.282  0.1207 -1.6739  0.4353
18335THY    CP248835   2.588   4.636   6.413  0.0852 -0.2031 -0.4233
18335THY    HP248836   2.583   4.542   6.469  0.3825 -1.5220 -1.2516
18335THY    HP348837   2.614   4.729   6.464 -0.5074  1.4025 -1.1062
18335THY    HP448838   2.677   4.610   6.354  0.7389  0.6192 -0.0712
18335THY    CP348839   2.459   4.779   6.251 -0.0091  0.5350  0.4901
18335THY    HP548840   2.527   4.763   6.167  1.3381  1.5434  0.7870
18335THY    HP648841   2.482   4.874   6.301 -1.8663 -0.3358  1.4539
18335THY    HP748842   2.357   4.799   6.217 -0.7779  2.2257 -0.3290
18335THY    CA348843   2.316   4.781   6.529 -0.0600 -0.4374  0.6812
18335THY    HA348844   2.378   4.869   6.512 -0.1876 -3.6764  0.2726
18335THY    CA448845   2.213   4.783   6.618  0.6124 -0.2643 -0.0251
18335THY    HA448846   2.199   4.873   6.677  2.5868  0.3109 -0.0483
18335THY    CA548847   2.131   4.669   6.640 -0.5378 -0.0148 -0.0132
18335THY    CM148848   2.053   4.661   6.779  0.0482 -0.5799  0.8600
18335THY    HM148849   2.019   4.762   6.802  0.9224 -0.3936  1.1171
18335THY    HM248850   2.101   4.620   6.868 -2.2727  0.3116 -0.1015
18335THY    HM348851   1.970   4.591   6.761  1.2903 -2.0559 -0.3313
18335THY    CA648852   2.151   4.566   6.555  0.1189 -0.4569  0.6840
18335THY    HA648853   2.087   4.479   6.562 -0.2382  0.0151  0.9777
18336THY      O48854   7.670   2.714   5.741  0.6281  0.3272 -0.4535
18336THY     HO48855   7.670   2.736   5.836 -3.8306  0.0160  2.0296
18336THY    CA148856   7.623   2.826   5.680 -0.0522  0.1895  0.5634
18336THY    CA248857   7.639   2.844   5.539  0.1791 -0.1073 -0.5438
18336THY    CP148858   7.727   2.754   5.448 -0.1463 -0.7489 -0.2567
18336THY    HP148859   7.804   2.708   5.511 -1.4819  1.5452  0.4867
18336THY    CP248860   7.807   2.840   5.354  0.2995  0.1344  0.0922
18336THY    HP248861   7.751   2.871   5.265 -0.3209  0.9998  1.5774
18336THY    HP348862   7.889   2.786   5.306  0.3819 -0.5164  0.7799
18336THY    HP448863   7.852   2.929   5.400 -2.2984  2.3369  0.3851
18336THY    CP348864   7.646   2.647   5.387 -0.0862 -0.4612 -0.1367
18336THY    HP548865   7.589   2.593   5.463  0.9793  2.0497  2.0474
18336THY    HP648866   7.715   2.578   5.335 -1.0317 -2.0471  0.0640
18336THY    HP748867   7.582   2.685   5.306  0.7105 -1.1485 -0.2138
18336THY    CA348868   7.578   2.962   5.489 -0.5483  0.2468 -0.3432
18336THY    HA348869   7.582   2.993   5.385  3.1558  0.2896 -0.2588
18336THY    CA448870   7.493   3.042   5.564  0.1412 -0.2781  0.0951
18336THY    HA448871   7.449   3.130   5.518  0.2963 -0.5588  0.0278
18336THY    CA548872   7.475   3.015   5.695  0.9308  0.1936  0.3606
18336THY    CM148873   7.372   3.094   5.773 -0.1757 -0.6720 -0.0574
18336THY    HM148874   7.379   3.200   5.748 -0.3151 -0.1213  0.0818
18336THY    HM248875   7.381   3.079   5.881 -0.6548 -0.5367  0.5978
18336THY    HM348876   7.270   3.058   5.755 -0.4284 -2.6558  1.4316
18336THY    CA648877   7.534   2.904   5.751  0.4104 -0.4673 -0.5993
18336THY    HA648878   7.515   2.886   5.857 -1.0714 -0.9410 -2.0187
18337THY      O48879   8.593   7.741   4.589 -0.0938  0.2811 -0.0122
18337THY     HO48880   8.502   7.729   4.622 -0.6363 -1.0896  0.1414
18337THY    CA148881   8.653   7.780   4.699  0.2903  0.1058 -0.0773
18337THY    CA248882   8.791   7.821   4.697  0.5439 -0.3904 -1.3634
18337THY    CP148883   8.878   7.814   4.570  0.6873  0.1458  0.0464
18337THY    HP148884   8.814   7.754   4.503  0.1859  0.9445 -0.3298
18337THY    CP248885   9.004   7.742   4.592  0.8511  0.3180  0.0133
18337THY    HP248886   8.985   7.645   4.641 -0.2893  0.8056  0.4647
18337THY    HP348887   9.084   7.795   4.644  1.4870 -1.7211  1.1665
18337THY    HP448888   9.063   7.729   4.500  1.1385  0.1101  2.3785
18337THY    CP348889   8.885   7.951   4.497 -0.4935  0.1291 -0.0579
18337THY    HP548890   8.918   7.943   4.392  0.4946  0.2007  2.2953
18337THY    HP648891   8.946   8.017   4.560 -1.4501  0.3435  0.6420
18337THY    HP748892   8.790   8.004   4.503 -0.1660 -2.5685  1.0217
18337THY    CA348893   8.842   7.869   4.819 -0.3799 -0.6116  0.0620
18337THY    HA348894   8.946   7.901   4.814 -0.4100 -1.9518  0.0227
18337THY    CA448895   8.764   7.873   4.933  0.1604 -0.6158 -0.1668
18337THY    HA448896   8.804   7.912   5.026  0.3812  0.7233 -3.2961
18337THY    CA548897   8.634   7.833   4.928  0.3526 -0.3362  0.2181
18337THY    CM148898   8.550   7.826   5.050 -0.1674 -0.8038 -0.0870
18337THY    HM148899   8.459   7.884   5.029 -0.0395 -0.6821  0.1574
18337THY    HM248900   8.602   7.869   5.136 -0.1824 -1.0617  0.4570
18337THY    HM348901   8.516   7.727   5.081  0.2753 -2.5809 -0.8498
18337THY    CA648902   8.580   7.793   4.810 -0.1669 -0.0207 -0.3031
18337THY    HA648903   8.475   7.765   4.810  0.6470 -0.4985 -3.8524
18338THY      O48904   6.602   3.210   3.388 -0.2824 -0.3010 -0.7152
18338THY     HO48905   6.679   3.156   3.362  0.6712  1.3278 -0.2094
18338THY    CA148906   6.620   3.337   3.333 -0.6847 -0.2332 -0.4969
18338THY    CA248907   6.623   3.450   3.413 -0.2203 -0.0250  0.4697
18338THY    CP148908   6.610   3.433   3.563  0.2604 -0.2153 -0.2957
18338THY    HP148909   6.604   3.328   3.595  2.3116  1.0357 -0.0960
18338THY    CP248910   6.493   3.506   3.629  0.1551 -0.7697 -0.7547
18338THY    HP248911   6.477   3.603   3.581 -4.0253  0.3146 -0.7455
18338THY    HP348912   6.511   3.541   3.731 -1.3397 -1.2466  1.6062
18338THY    HP448913   6.400   3.448   3.621 -0.0332 -3.0162 -0.2347
18338THY    CP348914   6.734   3.494   3.632  0.0316  0.5098 -0.2531
18338THY    HP548915   6.823   3.444   3.594 -0.1470 -3.6408  2.0848
18338THY    HP648916   6.737   3.476   3.740 -1.5662  1.1904  2.7949
18338THY    HP748917   6.736   3.600   3.603 -1.9152  3.1957  0.6253
18338THY    CA348918   6.622   3.574   3.343  0.2632  0.5873  0.5074
18338THY    HA348919   6.623   3.669   3.396  0.5880 -0.0309  0.8547
18338THY    CA448920   6.620   3.580   3.202  0.1572  0.3473 -0.7560
18338THY    HA448921   6.624   3.679   3.157  2.9568  2.5988  0.3010
18338THY    CA548922   6.627   3.468   3.129  0.0790 -0.2262 -0.1897
18338THY    CM148923   6.653   3.470   2.981  0.8773 -0.3481 -0.3775
18338THY    HM148924   6.618   3.387   2.918 -0.4545  0.0456 -0.1333
18338THY    HM248925   6.760   3.485   2.960  1.4439  1.0386 -2.1624
18338THY    HM348926   6.615   3.561   2.933 -1.0767  0.3363 -0.7960
18338THY    CA648927   6.629   3.347   3.197 -0.1752 -0.0687  0.2482
18338THY    HA648928   6.614   3.259   3.135 -0.8692 -0.1364  0.4053
18339THY      O48929   0.219   7.921   6.571  0.2817  0.1753  1.0461
18339THY     HO48930   0.131   7.963   6.574 -1.7158  4.0968 -2.5809
18339THY    CA148931   0.239   7.871   6.697  0.4930  0.7979  0.8367
18339THY    CA248932   0.299   7.746   6.719 -0.5666  0.2833  0.3677
18339THY    CP148933   0.361   7.665   6.605 -0.1551  0.3726  0.1424
18339THY    HP148934   0.403   7.734   6.531 -3.2470 -1.7110  0.0365
18339THY    CP248935   0.249   7.587   6.531 -0.5034  0.4268  0.3162
18339THY    HP248936   0.155   7.643   6.525 -0.8891 -0.9435 -0.4205
18339THY    HP348937   0.233   7.494   6.586 -1.3134  0.2756  0.3564
18339THY    HP448938   0.287   7.565   6.430 -1.9562 -0.5502  1.9750
18339THY    CP348939   0.480   7.570   6.636  0.0630  0.0496 -0.5827
18339THY    HP548940   0.566   7.630   6.669  0.7027 -1.3585 -0.6742
18339THY    HP648941   0.498   7.511   6.545  0.0523 -1.5823  1.7722
18339THY    HP748942   0.452   7.493   6.709 -1.5165 -0.4089 -0.4716
18339THY    CA348943   0.310   7.694   6.848  0.2486 -0.4344 -0.0911
18339THY    HA348944   0.366   7.603   6.869 -0.7920 -1.8835 -1.1081
18339THY    CA448945   0.250   7.766   6.955 -0.1886  1.3695  0.6216
18339THY    HA448946   0.260   7.734   7.058  0.3141  1.2995  0.5532
18339THY    CA548947   0.182   7.887   6.932  0.0240  0.4808 -0.9876
18339THY    CM148948   0.121   7.961   7.048  0.5509 -0.0781 -0.6282
18339THY    HM148949   0.153   7.928   7.147 -3.8024  0.9189 -2.5303
18339THY    HM248950   0.013   7.947   7.054  0.6292 -0.0412 -1.2431
18339THY    HM348951   0.146   8.068   7.047  2.8891  3.2058 -1.0011
18339THY    CA648952   0.177   7.947   6.800 -0.6840 -0.0252  0.5856
18339THY    HA648953   0.129   8.043   6.787 -0.0712 -1.5878  0.7160
18340THY      O48954   5.438   6.633   2.368  0.3411  0.2385 -0.0160
18340THY     HO48955   5.387   6.716   2.371 -1.1661 -0.6860 -0.8587
18340THY    CA148956   5.551   6.657   2.300 -0.0617  0.8933 -0.1213
18340THY    CA248957   5.671   6.594   2.336  0.4530  0.3608  0.3187
18340THY    CP148958   5.672   6.499   2.463 -0.0572 -0.5109 -0.3057
18340THY    HP148959   5.596   6.523   2.538 -0.2082  0.0454 -2.3369
18340THY    CP248960   5.804   6.510   2.552  0.6800  1.1601 -0.7388
18340THY    HP248961   5.805   6.615   2.581 -0.8700 -0.0287 -0.3573
18340THY    HP348962   5.894   6.499   2.490 -0.5622 -1.0810  0.9215
18340THY    HP448963   5.815   6.429   2.625 -0.4318  0.5020 -1.5164
18340THY    CP348964   5.654   6.358   2.424 -0.2142 -0.3931  0.3030
18340THY    HP548965   5.742   6.327   2.365  0.2554  0.0186  0.8319
18340THY    HP648966   5.565   6.335   2.365 -0.8007  0.3612  0.6135
18340THY    HP748967   5.650   6.295   2.514 -1.0343  0.5653  1.6685
18340THY    CA348968   5.781   6.632   2.261 -0.3909  0.5640  0.1595
18340THY    HA348969   5.877   6.591   2.289  0.4956 -2.5180 -0.0914
18340THY    CA448970   5.770   6.713   2.151  0.9897  0.4228  0.1837
18340THY    HA448971   5.855   6.750   2.095  0.0847  0.0798  1.8525
18340THY    CA548972   5.646   6.771   2.124 -0.0567  0.3172 -0.0721
18340THY    CM148973   5.635   6.874   2.016 -0.5634 -0.3512 -0.0878
18340THY    HM148974   5.566   6.822   1.949 -1.1754 -0.3428  0.6975
18340THY    HM248975   5.725   6.898   1.958 -1.1859 -1.6239 -0.7360
18340THY    HM348976   5.603   6.966   2.066  0.9578 -1.2623  0.9818
18340THY    CA648977   5.533   6.743   2.195 -0.6222 -0.6158 -0.0847
18340THY    HA648978   5.438   6.780   2.159 -2.4154  0.7635 -2.9917
18341THY      O48979   5.422   6.330   3.686 -0.0566  0.0982 -0.0884
18341THY     HO48980   5.509   6.315   3.646 -0.5073 -1.1375  0.4328
18341THY    CA148981   5.434   6.442   3.759 -0.9178 -0.1777 -0.8190
18341THY    CA248982   5.320   6.508   3.820 -0.9369  0.1410  0.4909
18341THY    CP148983   5.177   6.473   3.786 -0.2363  0.6117 -0.2455
18341THY    HP148984   5.180   6.427   3.686 -0.1584  1.3949 -1.9914
18341THY    CP248985   5.074   6.591   3.772 -0.0807  0.6739  0.0156
18341THY    HP248986   5.048   6.636   3.869 -0.8944 -0.4012  1.9895
18341THY    HP348987   4.983   6.553   3.726 -0.5440 -1.9041  3.6763
18341THY    HP448988   5.112   6.661   3.697 -1.3678 -0.8018 -0.8151
18341THY    CP348989   5.119   6.384   3.894 -0.0480  0.0703  0.4922
18341THY    HP548990   5.015   6.357   3.873  0.0391 -0.2214  0.3784
18341THY    HP648991   5.119   6.429   3.994 -1.8205  0.5085 -0.3850
18341THY    HP748992   5.178   6.291   3.892 -1.0630  1.9196 -0.2664
18341THY    CA348993   5.347   6.621   3.905 -0.2334  0.1884  0.1404
18341THY    HA348994   5.264   6.674   3.950 -1.6766 -0.8657 -1.1061
18341THY    CA448995   5.474   6.676   3.912  0.2094 -1.0882  0.1000
18341THY    HA448996   5.484   6.760   3.980  0.8263  0.1122 -0.9112
18341THY    CA548997   5.583   6.609   3.855 -0.2823 -0.6671  0.2221
18341THY    CM148998   5.718   6.669   3.850  0.0469 -0.3314  0.0883
18341THY    HM148999   5.793   6.593   3.874  1.6337 -1.5540  1.1924
18341THY    HM249000   5.725   6.745   3.928 -2.0533 -3.0017  3.3885
18341THY    HM349001   5.745   6.704   3.749  0.7119 -0.9198 -1.9686
18341THY    CA649002   5.565   6.490   3.780  0.5330 -0.2021 -0.0245
18341THY    HA649003   5.647   6.433   3.738 -1.5236 -1.3003 -2.3651
18342THY      O49004   7.936   7.786   7.469 -0.6427  0.7141 -0.1855
18342THY     HO49005   7.994   7.800   7.546  0.3475  0.1647 -1.0765
18342THY    CA149006   7.984   7.866   7.370 -0.0105  0.4219  0.3633
18342THY    CA249007   7.960   7.843   7.234 -0.5814 -0.7764  0.1425
18342THY    CP149008   7.883   7.722   7.197 -0.1406 -0.1077 -0.2261
18342THY    HP149009   7.906   7.645   7.272 -3.1161  0.4630 -0.6537
18342THY    CP249010   7.941   7.662   7.065  0.6796  0.2347  0.0838
18342THY    HP249011   8.049   7.679   7.060  0.6176 -1.4221  0.1197
18342THY    HP349012   7.891   7.710   6.980 -0.4702 -0.4156 -2.1594
18342THY    HP449013   7.930   7.553   7.062 -0.8205  0.2141  0.2239
18342THY    CP349014   7.729   7.736   7.188  0.0719  0.8302 -0.0636
18342THY    HP549015   7.699   7.829   7.139 -0.8052  2.2406  0.4256
18342THY    HP649016   7.678   7.731   7.286 -1.8496 -0.1391 -0.5033
18342THY    HP749017   7.694   7.652   7.127  0.8446 -0.5364  0.5741
18342THY    CA349018   8.014   7.941   7.140  0.5807 -0.2378 -0.5237
18342THY    HA349019   8.004   7.939   7.032  1.0751 -0.3842  1.6726
18342THY    CA449020   8.067   8.059   7.185  0.4552 -0.5900  0.1275
18342THY    HA449021   8.101   8.139   7.120  0.5584  2.5018  2.8120
18342THY    CA549022   8.095   8.075   7.328 -0.9236 -0.2716  0.0225
18342THY    CM149023   8.164   8.207   7.362 -0.1550 -0.5996  0.0235
18342THY    HM149024   8.093   8.278   7.404 -0.8045  0.2803 -1.1095
18342THY    HM249025   8.212   8.253   7.274  1.8678  0.6792  0.4968
18342THY    HM349026   8.237   8.187   7.441 -0.2357 -0.7068 -0.7191
18342THY    CA649027   8.057   7.978   7.416  0.3120  0.0436  0.2256
18342THY    HA649028   8.064   7.997   7.523  1.1641  0.1186 -0.5046
18343THY      O49029   2.989   4.720   7.398  0.4671 -0.4115  0.1896
18343THY     HO49030   2.959   4.671   7.320  2.1794 -1.1348  0.2099
18343THY    CA149031   3.120   4.738   7.372  0.8538 -0.4640 -0.1544
18343THY    CA249032   3.228   4.699   7.451  0.5200  0.2762  0.5420
18343THY    CP149033   3.211   4.622   7.579 -0.1859  0.4456 -0.1414
18343THY    HP149034   3.306   4.587   7.620 -0.3901  0.4852 -0.6520
18343THY    CP249035   3.126   4.497   7.562 -0.0713  0.4811 -0.1195
18343THY    HP249036   3.155   4.429   7.481 -1.4976 -0.6700  0.5832
18343THY    HP349037   3.021   4.529   7.565  0.3415  2.0287  1.1822
18343THY    HP449038   3.138   4.428   7.646  1.6636 -0.6504 -1.2859
18343THY    CP349039   3.153   4.719   7.690 -0.6460 -0.3010  0.0065
18343THY    HP549040   3.232   4.792   7.713 -0.8330 -0.3644  0.2300
18343THY    HP649041   3.132   4.670   7.786  3.2614  0.7237 -0.0324
18343THY    HP749042   3.061   4.757   7.645 -0.3431 -0.9845 -0.0544
18343THY    CA349043   3.354   4.734   7.408 -0.8130  0.4238  0.1164
18343THY    HA349044   3.445   4.708   7.461 -0.0711 -0.2384  1.2836
18343THY    CA449045   3.374   4.794   7.282 -0.2560  0.2982  0.7624
18343THY    HA449046   3.473   4.830   7.256  0.0708 -0.4246 -0.5878
18343THY    CA549047   3.271   4.811   7.195 -0.5236 -0.5654 -0.3111
18343THY    CM149048   3.294   4.883   7.055 -0.9726 -0.8088 -0.7408
18343THY    HM149049   3.391   4.855   7.011 -0.3079  0.1935 -0.0371
18343THY    HM249050   3.295   4.990   7.078 -2.0818  0.8716 -1.0565
18343THY    HM349051   3.215   4.868   6.980 -1.1615 -0.8932  0.5764
18343THY    CA649052   3.141   4.776   7.241 -0.2782  0.3227 -0.2347
18343THY    HA649053   3.055   4.800   7.179 -2.0617  1.8651 -2.1790
18344THY      O49054   3.841   4.203   2.387 -0.3826  0.3803  0.7223
18344THY     HO49055   3.881   4.248   2.311 -0.8431  0.4789  1.3121
18344THY    CA149056   3.740   4.131   2.327 -0.5473 -0.1323 -1.6255
18344THY    CA249057   3.644   4.063   2.408 -0.0942 -0.3142 -0.2625
18344THY    CP149058   3.647   4.073   2.562 -0.3566  0.7208 -0.2875
18344THY    HP149059   3.740   4.120   2.597 -1.3362  0.5969  1.8296
18344THY    CP249060   3.643   3.933   2.617  0.4400 -0.1471 -0.4189
18344THY    HP249061   3.669   3.938   2.724  2.7844 -0.6981  2.1863
18344THY    HP349062   3.716   3.857   2.587  1.5478  3.1396 -0.8137
18344THY    HP449063   3.536   3.910   2.614 -0.0539  0.8257  1.5349
18344THY    CP349064   3.538   4.155   2.614  0.0713  0.4739  0.2041
18344THY    HP549065   3.544   4.260   2.581 -0.8735  2.4230  0.9208
18344THY    HP649066   3.559   4.168   2.721  1.0497  0.1361  1.6148
18344THY    HP749067   3.440   4.107   2.603  1.3541  0.1217 -2.5038
18344THY    CA349068   3.543   3.988   2.348 -0.4882  0.8991  0.0535
18344THY    HA349069   3.459   3.949   2.405  0.1654  4.2400  2.9470
18344THY    CA449070   3.553   3.968   2.209  0.0331  0.1892 -1.0250
18344THY    HA449071   3.482   3.903   2.159  1.3437 -2.4732 -0.5674
18344THY    CA549072   3.649   4.037   2.131 -0.9599 -0.8295  0.2114
18344THY    CM149073   3.675   4.011   1.986 -0.1281  0.8970 -0.4233
18344THY    HM149074   3.618   3.926   1.948 -1.1798  1.7313 -0.1212
18344THY    HM249075   3.781   3.992   1.966  0.3315  2.7137  0.0420
18344THY    HM349076   3.652   4.097   1.922 -0.3406 -1.2464 -2.0096
18344THY    CA649077   3.743   4.124   2.192 -0.4121 -0.2467 -0.5357
18344THY    HA649078   3.813   4.186   2.137 -1.7326 -0.4771  0.8243
18345THY      O49079   7.124   5.187   4.619 -0.4389 -0.2414  0.0402
18345THY     HO49080   7.096   5.094   4.624  0.7651 -0.8418 -0.3734
18345THY    CA149081   7.015   5.258   4.664 -0.2610  0.1013 -0.4409
18345THY    CA249082   6.983   5.377   4.593 -0.2984  0.4601 -0.2814
18345THY    CP149083   7.045   5.403   4.451  0.1329  0.6524 -0.5485
18345THY    HP149084   7.064   5.308   4.401  2.5666  1.1098 -0.3831
18345THY    CP249085   7.185   5.473   4.460  0.9519 -0.3616  0.0243
18345THY    HP249086   7.241   5.462   4.366  1.1114 -0.5907  2.3133
18345THY    HP349087   7.247   5.419   4.532  0.0391  0.6766  0.3406
18345THY    HP449088   7.183   5.573   4.506 -1.1269  0.0746 -0.1925
18345THY    CP349089   6.957   5.492   4.354  0.0606 -0.3758 -0.2633
18345THY    HP549090   6.856   5.450   4.352 -0.3514  2.6813  0.3897
18345THY    HP649091   7.003   5.476   4.256 -2.1517 -1.6334  0.5655
18345THY    HP749092   6.960   5.599   4.378  0.7817 -0.9600 -0.1414
18345THY    CA349093   6.879   5.463   4.642  0.1639 -0.4467  0.4327
18345THY    HA349094   6.848   5.547   4.580  2.2108  0.5316  2.0116
18345THY    CA449095   6.822   5.435   4.766 -0.3950  1.2787  0.0422
18345THY    HA449096   6.744   5.494   4.813  1.1887  1.9328  1.7399
18345THY    CA549097   6.859   5.319   4.835 -0.2687  0.3035 -0.6858
18345THY    CM149098   6.801   5.289   4.964  0.4596 -0.0381  0.3910
18345THY    HM149099   6.851   5.218   5.032 -0.4472  0.7784  0.5183
18345THY    HM249100   6.698   5.254   4.951 -0.7426  1.0595  3.2295
18345THY    HM349101   6.789   5.376   5.029  2.2344  2.1236 -0.8520
18345THY    CA649102   6.959   5.233   4.784  0.0289  0.1415 -0.3787
18345THY    HA649103   6.995   5.161   4.856  0.8378  0.4831  0.3490
18346THY      O49104   0.731   7.361   2.548 -0.5064  0.2655  0.0277
18346THY     HO49105   0.634   7.369   2.553 -0.4369 -0.4698  2.1348
18346THY    CA149106   0.754   7.273   2.443 -0.1717 -0.8836 -0.4562
18346THY    CA249107   0.876   7.270   2.372  0.0447  0.2415 -0.1506
18346THY    CP149108   0.999   7.315   2.441 -0.2189  0.0492 -0.2804
18346THY    HP149109   0.987   7.303   2.549  0.6399  0.0989 -0.8432
18346THY    CP249110   1.031   7.454   2.392  0.3041 -0.2299 -0.2322
18346THY    HP249111   0.938   7.510   2.379  0.1759 -0.9495 -0.5989
18346THY    HP349112   1.083   7.465   2.296 -0.7280 -0.8485 -0.6042
18346THY    HP449113   1.091   7.508   2.466  0.4216 -1.5701  1.5761
18346THY    CP349114   1.123   7.232   2.417 -0.1637 -0.6329 -0.5197
18346THY    HP549115   1.196   7.280   2.482 -1.6777 -0.4737  1.7050
18346THY    HP649116   1.158   7.240   2.314 -2.8138 -1.4594  2.1645
18346THY    HP749117   1.110   7.131   2.460  2.0648  1.1071 -0.1549
18346THY    CA349118   0.886   7.192   2.253 -0.0621  0.6996 -0.7739
18346THY    HA349119   0.977   7.175   2.197  0.6294  1.5838 -0.0421
18346THY    CA449120   0.772   7.122   2.213 -0.0637 -0.2828 -0.3168
18346THY    HA449121   0.770   7.070   2.117 -2.4813 -1.6910  2.1265
18346THY    CA549122   0.651   7.138   2.276  0.0117  0.2367 -0.4977
18346THY    CM149123   0.534   7.062   2.234  0.7489  0.0521 -0.1688
18346THY    HM149124   0.450   7.133   2.237  0.3766 -0.3934 -0.5825
18346THY    HM249125   0.516   6.970   2.291  0.1843 -1.0315 -0.7449
18346THY    HM349126   0.548   7.026   2.131  1.0645  0.2344 -0.5727
18346THY    CA649127   0.639   7.205   2.400  0.0749 -0.6616  0.1735
18346THY    HA649128   0.547   7.210   2.458 -0.6198 -1.7537  0.3202
18347THY      O49129   3.758   1.711   3.911 -0.4083 -0.3529 -0.5597
18347THY     HO49130   3.694   1.720   3.838 -0.4858 -0.1483  0.8655
18347THY    CA149131   3.737   1.605   3.995  0.1078 -0.5526 -0.6960
18347THY    CA249132   3.822   1.571   4.102 -0.5901 -0.1268  0.3513
18347THY    CP149133   3.926   1.675   4.149  0.0028 -0.4808 -0.6005
18347THY    HP149134   3.954   1.750   4.074 -1.4235  0.5822  1.1002
18347THY    CP249135   4.061   1.614   4.188  0.2359  0.1354 -0.1196
18347THY    HP249136   4.087   1.542   4.109 -1.1689 -2.4503  2.0207
18347THY    HP349137   4.048   1.567   4.286 -1.9113 -0.2831 -0.5399
18347THY    HP449138   4.140   1.689   4.195 -0.1185 -2.7535  0.6457
18347THY    CP349139   3.877   1.769   4.264  0.6783  0.5700  0.4907
18347THY    HP549140   3.859   1.715   4.357  2.2473  1.3549  1.2591
18347THY    HP649141   3.800   1.841   4.235 -1.1115  0.8791 -1.2147
18347THY    HP749142   3.964   1.834   4.279 -0.3746 -2.6960  2.9751
18347THY    CA349143   3.807   1.438   4.152 -0.2132  0.0757  0.5988
18347THY    HA349144   3.871   1.404   4.232 -0.9871  1.3604  2.0284
18347THY    CA449145   3.709   1.347   4.101 -0.4006 -0.4200  0.0714
18347THY    HA449146   3.703   1.246   4.140  0.3011 -2.4255 -0.7813
18347THY    CA549147   3.624   1.385   3.996  0.6724 -0.3104 -0.7234
18347THY    CM149148   3.523   1.288   3.944  0.6208 -0.3064 -0.4567
18347THY    HM149149   3.420   1.325   3.949  1.3757 -1.0471  1.8877
18347THY    HM249150   3.528   1.191   3.995  0.3791 -1.4805 -1.1125
18347THY    HM349151   3.540   1.258   3.840 -0.4867 -0.7736  0.4922
18347THY    CA649152   3.643   1.518   3.949 -0.2733 -0.4083  0.3138
18347THY    HA649153   3.595   1.541   3.854  0.7204 -1.7593 -2.6458
18348THY      O49154   4.358   3.980   7.375 -0.1471 -0.3320  0.3369
18348THY     HO49155   4.289   4.042   7.346  0.3528 -2.1583  0.0727
18348THY    CA149156   4.477   4.042   7.370 -0.2286  0.5283 -0.3677
18348THY    CA249157   4.597   3.981   7.325  0.7216  0.4126  0.3578
18348THY    CP149158   4.597   3.828   7.298 -0.4752  0.0215 -0.5624
18348THY    HP149159   4.497   3.800   7.262 -1.3445  1.4360  0.5863
18348THY    CP249160   4.632   3.757   7.432 -0.5032 -0.7286 -0.0533
18348THY    HP249161   4.727   3.798   7.470 -0.3499 -0.4682 -0.6444
18348THY    HP349162   4.640   3.649   7.415 -1.2287 -0.7416 -0.1054
18348THY    HP449163   4.556   3.771   7.509 -0.8846 -1.3386  1.3922
18348THY    CP349164   4.698   3.792   7.189 -0.6125  0.2127 -0.1281
18348THY    HP549165   4.804   3.775   7.209  0.2811 -2.7813  1.2463
18348THY    HP649166   4.675   3.853   7.101 -0.9343  1.3453  1.4405
18348THY    HP749167   4.675   3.692   7.150 -3.0951  2.1536 -0.4303
18348THY    CA349168   4.709   4.059   7.306  0.3688 -0.7994  0.7746
18348THY    HA349169   4.801   4.007   7.282  0.4233 -1.8255  1.3126
18348THY    CA449170   4.707   4.197   7.339  0.6809 -0.2951  0.4969
18348THY    HA449171   4.800   4.253   7.331  1.5018 -1.4122 -0.9414
18348THY    CA549172   4.583   4.258   7.379 -1.0144 -0.2856  0.8428
18348THY    CM149173   4.575   4.393   7.433  0.7311  0.3185 -0.2968
18348THY    HM149174   4.632   4.467   7.376  0.5525 -0.9816 -1.1315
18348THY    HM249175   4.607   4.395   7.538 -1.0331  0.9192 -1.5270
18348THY    HM349176   4.472   4.432   7.432  0.2611  0.0360 -1.4880
18348THY    CA649177   4.470   4.179   7.389  0.0326 -0.5219 -0.0293
18348THY    HA649178   4.378   4.214   7.435  0.1239 -0.6438  0.3805
18349THY      O49179   6.647   5.367   6.675 -0.1724 -0.1489 -0.5328
18349THY     HO49180   6.602   5.316   6.744 -1.0261 -0.7445 -0.5916
18349THY    CA149181   6.770   5.320   6.658 -0.0139  1.0544 -0.1497
18349THY    CA249182   6.870   5.377   6.581  0.5721  0.3586 -0.7557
18349THY    CP149183   6.856   5.512   6.503  0.0450  0.3665 -0.6080
18349THY    HP149184   6.764   5.559   6.540 -0.9337 -2.0645 -0.4443
18349THY    CP249185   6.854   5.500   6.340 -0.7499  0.0244 -0.6804
18349THY    HP249186   6.959   5.493   6.309 -0.5186 -0.1713  2.2386
18349THY    HP349187   6.808   5.590   6.297 -0.0582  1.5778  0.4635
18349THY    HP449188   6.796   5.411   6.314 -1.8835 -0.4208  0.1507
18349THY    CP349189   6.962   5.613   6.553 -0.2920  0.3339  0.3970
18349THY    HP549190   6.969   5.632   6.661  1.8801  0.1982  0.6806
18349THY    HP649191   6.946   5.713   6.510  1.3962 -0.4448  0.3627
18349THY    HP749192   7.062   5.576   6.527 -0.4031  0.5700 -0.0692
18349THY    CA349193   7.002   5.317   6.576  0.2120  0.0774 -0.8270
18349THY    HA349194   7.077   5.345   6.504  0.9917  1.5176  0.9990
18349THY    CA449195   7.037   5.210   6.663  0.0004  0.3756 -0.7276
18349THY    HA449196   7.135   5.164   6.667  0.7063 -0.0804  0.7055
18349THY    CA549197   6.932   5.166   6.751 -0.5973  0.8775  0.0088
18349THY    CM149198   6.958   5.054   6.862 -0.1829 -0.5187 -0.3540
18349THY    HM149199   7.056   5.008   6.847  1.5614 -0.6762  3.0309
18349THY    HM249200   6.881   4.977   6.859 -1.2963 -0.9447  0.7303
18349THY    HM349201   6.951   5.097   6.962  1.8831 -0.6173  0.3070
18349THY    CA649202   6.805   5.215   6.740  0.6165  0.8859 -0.9033
18349THY    HA649203   6.725   5.173   6.800 -2.8784 -2.2041  0.7109
18350THY      O49204   3.744   5.540   6.837 -0.2572  0.5889  0.4268
18350THY     HO49205   3.681   5.558   6.765 -0.4303  0.8673  0.9647
18350THY    CA149206   3.693   5.439   6.917 -0.6128 -0.0799  0.6157
18350THY    CA249207   3.769   5.360   7.011  0.1968 -0.4193  0.4837
18350THY    CP149208   3.909   5.400   7.057  0.1061 -0.5445 -0.2641
18350THY    HP149209   3.940   5.479   6.988 -2.2370  0.0550  1.2865
18350THY    CP249210   4.016   5.287   7.057 -0.1027  0.1503 -0.3038
18350THY    HP249211   3.995   5.209   7.131 -2.2459  1.5745  1.5021
18350THY    HP349212   4.111   5.331   7.088  0.5897  0.9230 -2.2375
18350THY    HP449213   4.031   5.238   6.960 -0.5952  0.2746 -0.7085
18350THY    CP349214   3.916   5.465   7.193 -0.0362 -0.1548  0.2095
18350THY    HP549215   4.015   5.506   7.215  0.9237 -0.6816 -1.7366
18350THY    HP649216   3.896   5.392   7.272 -0.3014 -1.3673 -1.0772
18350THY    HP749217   3.845   5.549   7.200  0.3260 -0.7128  0.5673
18350THY    CA349218   3.703   5.252   7.072  0.3860 -0.1016 -0.5163
18350THY    HA349219   3.761   5.184   7.134  0.9669 -1.5596 -1.4122
18350THY    CA449220   3.573   5.219   7.032 -0.5116 -0.9120  0.3787
18350THY    HA449221   3.521   5.133   7.073 -0.5343  1.2675  1.3519
18350THY    CA549222   3.507   5.290   6.937  1.1503  0.1087 -0.8353
18350THY    CM149223   3.374   5.234   6.891 -0.3636  0.2481  0.1402
18350THY    HM149224   3.330   5.266   6.796 -1.1592  0.8213  0.7966
18350THY    HM249225   3.306   5.252   6.975  1.4137  1.6518  0.6187
18350THY    HM349226   3.384   5.126   6.871 -0.4145  1.1445 -0.0412
18350THY    CA649227   3.566   5.395   6.875 -0.8042  0.0403  0.4125
18350THY    HA649228   3.495   5.445   6.809 -0.1402 -1.3337 -0.4031
18351THY      O49229   6.324   4.261   3.101 -0.2783 -0.5638  0.2002
18351THY     HO49230   6.322   4.310   3.017  1.7046  0.0831  1.5270
18351THY    CA149231   6.383   4.141   3.086  0.5886  0.4818  0.2807
18351THY    CA249232   6.373   4.032   3.178 -0.3162 -0.2525 -0.2020
18351THY    CP149233   6.296   4.058   3.304  0.0455  0.2170  0.4560
18351THY    HP149234   6.259   4.160   3.316  0.0617 -2.9372  0.9342
18351THY    CP249235   6.390   4.030   3.426 -0.3151  0.8482  0.5417
18351THY    HP249236   6.463   4.111   3.429 -1.6167  0.5435  1.7733
18351THY    HP349237   6.442   3.933   3.421 -1.0602 -1.0792  0.1896
18351THY    HP449238   6.334   4.042   3.519 -3.3243 -0.4974 -1.5434
18351THY    CP349239   6.175   3.958   3.310  0.3176  0.2593  0.0926
18351THY    HP549240   6.216   3.856   3.308  1.8597  0.9851  0.6811
18351THY    HP649241   6.104   3.954   3.226  2.2544 -1.4775  0.5104
18351THY    HP749242   6.131   3.981   3.407  1.6970  0.5974  1.4850
18351THY    CA349243   6.426   3.906   3.151 -0.4859  0.2559  0.1737
18351THY    HA349244   6.414   3.818   3.214  1.3151 -0.4759 -0.6497
18351THY    CA449245   6.496   3.887   3.035 -0.2497 -0.5512  0.2501
18351THY    HA449246   6.532   3.787   3.012 -3.0446 -0.3317 -0.9107
18351THY    CA549247   6.521   3.998   2.948  0.5602 -0.4355 -0.8993
18351THY    CM149248   6.617   3.979   2.840 -0.4702 -0.3328  0.5095
18351THY    HM149249   6.709   4.031   2.868 -0.1798  1.0565 -0.6811
18351THY    HM249250   6.584   4.016   2.742  1.2577 -1.0425  0.2648
18351THY    HM349251   6.642   3.873   2.831  0.0664  1.1326  0.4867
18351THY    CA649252   6.459   4.126   2.971  1.0131  0.3526 -0.1589
18351THY    HA649253   6.481   4.220   2.922  1.3494 -1.4262 -1.1269
18352THY      O49254   2.928   6.517   4.113 -0.7066 -0.1289 -0.1887
18352THY     HO49255   3.009   6.528   4.060 -0.5837  0.2041  0.6712
18352THY    CA149256   2.941   6.620   4.204  0.0280  0.5875  0.2064
18352THY    CA249257   2.904   6.605   4.345 -0.3082  0.9502 -0.1246
18352THY    CP149258   2.837   6.484   4.404 -0.1009  0.2247  0.2037
18352THY    HP149259   2.815   6.412   4.325 -0.2009 -1.0716  1.6085
18352THY    CP249260   2.697   6.529   4.460 -0.2552  0.9450 -0.4804
18352THY    HP249261   2.631   6.575   4.385  0.9730  1.0267  1.5273
18352THY    HP349262   2.704   6.598   4.545 -1.0457  1.6808 -1.2809
18352THY    HP449263   2.648   6.436   4.492  2.2897 -0.7791 -2.5485
18352THY    CP349264   2.913   6.418   4.513 -0.4048 -0.4323  0.3475
18352THY    HP549265   2.908   6.486   4.599  4.2012  1.2732 -1.0931
18352THY    HP649266   3.013   6.398   4.472 -0.2527  0.4375 -0.7352
18352THY    HP749267   2.875   6.319   4.537  1.6717  1.0295 -0.1585
18352THY    CA349268   2.923   6.722   4.424 -0.0106  0.1261 -0.1242
18352THY    HA349269   2.897   6.724   4.530  2.1143  0.7976 -2.5220
18352THY    CA449270   2.995   6.831   4.375 -0.3318  0.4391 -0.7051
18352THY    HA449271   3.017   6.918   4.437  0.8622  1.0287 -1.3960
18352THY    CA549272   3.040   6.839   4.238 -0.3347 -0.3171  0.7770
18352THY    CM149273   3.117   6.952   4.186 -0.1291  0.3100 -0.4799
18352THY    HM149274   3.060   7.006   4.108 -0.2388  0.8848  0.2475
18352THY    HM249275   3.220   6.927   4.158  0.4586  1.4728  0.5520
18352THY    HM349276   3.128   7.024   4.268  1.4833  0.1950 -0.5686
18352THY    CA649277   3.013   6.733   4.153  0.0567 -0.5864 -0.1976
18352THY    HA649278   3.045   6.742   4.050  0.6802 -0.2973  1.2367
18353THY      O49279   7.081   7.529   5.699  0.0015 -0.0637 -0.1027
18353THY     HO49280   6.989   7.557   5.683  0.0674  1.6764  1.3214
18353THY    CA149281   7.150   7.545   5.582 -0.3104  0.5198  0.5829
18353THY    CA249282   7.294   7.561   5.581 -0.0620  0.5076  0.0059
18353THY    CP149283   7.369   7.553   5.716  0.4356  0.6251 -0.0176
18353THY    HP149284   7.314   7.489   5.785  0.9558  0.4077 -0.7182
18353THY    CP249285   7.375   7.697   5.766 -0.4718  0.8034 -0.7160
18353THY    HP249286   7.397   7.700   5.874  0.2659  0.6272  1.4803
18353THY    HP349287   7.279   7.747   5.750  0.7199 -1.3866  1.0323
18353THY    HP449288   7.445   7.759   5.710 -2.2412 -0.8171 -0.0728
18353THY    CP349289   7.510   7.492   5.722  0.0750  0.4778 -0.9050
18353THY    HP549290   7.563   7.535   5.637 -1.9785  0.5355  2.0536
18353THY    HP649291   7.507   7.384   5.703 -1.7417 -0.1808 -0.7722
18353THY    HP749292   7.556   7.526   5.816 -1.9463  1.8242 -1.6956
18353THY    CA349293   7.359   7.602   5.458 -0.0602  0.1705 -0.3995
18353THY    HA349294   7.467   7.607   5.453  0.1032  1.9754 -1.3173
18353THY    CA449295   7.290   7.613   5.339  0.0045 -0.7359  0.0876
18353THY    HA449296   7.347   7.640   5.251  4.5119  1.6928 -0.5499
18353THY    CA549297   7.154   7.581   5.344  0.5373  0.2392 -0.5772
18353THY    CM149298   7.076   7.601   5.215  0.4045 -0.1932  1.2781
18353THY    HM149299   7.137   7.655   5.142  0.8376 -0.2289  0.7448
18353THY    HM249300   6.978   7.648   5.231  0.1710 -0.1783  0.7851
18353THY    HM349301   7.062   7.503   5.169  0.3211  0.6674  0.8706
18353THY    CA649302   7.087   7.557   5.462 -0.0183  0.2069 -0.2085
18353THY    HA649303   6.979   7.564   5.451  0.2634 -2.8852  0.7478
18354THY      O49304   0.455   0.687   4.853  0.5324  0.1553  0.2875
18354THY     HO49305   0.490   0.769   4.813 -0.3505 -0.9288  0.1548
18354THY    CA149306   0.364   0.710   4.954  0.0486  0.8591  0.9653
18354THY    CA249307   0.288   0.610   5.007  0.5082 -0.1904 -0.3153
18354THY    CP149308   0.291   0.469   4.945 -0.4866  0.1793 -0.0076
18354THY    HP149309   0.320   0.478   4.840 -1.1077  0.1673  2.5116
18354THY    CP249310   0.147   0.400   4.949 -0.3335 -0.1460  1.0167
18354THY    HP249311   0.167   0.296   4.922 -1.0260  3.1498 -0.0737
18354THY    HP349312   0.059   0.441   4.897 -1.2041  0.3500 -0.1894
18354THY    HP449313   0.123   0.396   5.056 -0.5895 -0.2442 -1.1319
18354THY    CP349314   0.377   0.377   5.034 -1.2635  0.3850  0.1369
18354THY    HP549315   0.384   0.279   4.986 -1.6456  0.6925 -0.0407
18354THY    HP649316   0.337   0.355   5.133 -0.0680  0.4989 -1.6984
18354THY    HP749317   0.478   0.420   5.043 -0.8937  1.5024 -0.9141
18354THY    CA349318   0.222   0.629   5.133 -1.1140  0.3747  0.4601
18354THY    HA349319   0.164   0.551   5.181 -1.6999 -2.7545 -1.1623
18354THY    CA449320   0.224   0.762   5.189  0.0470  0.3888  0.6543
18354THY    HA449321   0.179   0.784   5.286 -0.2591  0.5729 -0.6849
18354THY    CA549322   0.301   0.860   5.127 -0.9736  0.1546 -0.1851
18354THY    CM149323   0.324   0.997   5.186 -0.1445  0.0049  0.2547
18354THY    HM149324   0.232   1.057   5.188  0.9436  1.4084  1.9793
18354THY    HM249325   0.407   1.054   5.143 -0.0935 -0.8700 -0.4563
18354THY    HM349326   0.345   0.989   5.294  0.2329  0.0649  1.6994
18354THY    CA649327   0.364   0.837   5.007 -0.1473 -0.8393 -0.0662
18354THY    HA649328   0.436   0.907   4.965 -0.5571 -0.1842  0.7587
18355THY      O49329   1.746   6.429   2.215  0.2605  0.1321  0.3973
18355THY     HO49330   1.723   6.511   2.262  0.5769 -0.8156  1.0479
18355THY    CA149331   1.814   6.480   2.115 -0.8017 -0.2261  0.4575
18355THY    CA249332   1.801   6.430   1.979 -0.5312  0.1428  0.0288
18355THY    CP149333   1.704   6.312   1.949 -0.3028  0.1989 -0.1089
18355THY    HP149334   1.640   6.292   2.036 -0.8098 -0.1689 -0.1021
18355THY    CP249335   1.761   6.179   1.908  0.1436  0.3096  0.2484
18355THY    HP249336   1.819   6.192   1.816 -0.2637 -0.2564 -1.6583
18355THY    HP349337   1.684   6.106   1.882 -2.0932  0.3901  2.4176
18355THY    HP449338   1.827   6.145   1.989  0.0512  0.5136  0.5410
18355THY    CP349339   1.603   6.361   1.847 -0.8676 -0.3738  0.1241
18355THY    HP549340   1.508   6.306   1.856 -0.2782  0.5350 -0.7938
18355THY    HP649341   1.634   6.348   1.743 -1.9432 -0.9701  2.0063
18355THY    HP749342   1.580   6.467   1.859  1.1530  0.2780  0.5231
18355THY    CA349343   1.873   6.495   1.869  0.3626 -0.7800  0.4236
18355THY    HA349344   1.865   6.473   1.763 -0.4786 -0.6948  0.2989
18355THY    CA449345   1.945   6.612   1.908  0.2737  0.0228 -0.5919
18355THY    HA449346   2.000   6.659   1.828  1.2890  0.9488 -0.1733
18355THY    CA549347   1.964   6.650   2.039 -0.0668 -0.5914 -0.2836
18355THY    CM149348   2.043   6.767   2.069  0.0243 -0.0272  0.3904
18355THY    HM149349   2.019   6.852   2.003  2.8164 -0.5199  0.8711
18355THY    HM249350   2.150   6.750   2.053  0.1549  1.3889 -0.2753
18355THY    HM349351   2.031   6.804   2.171  4.8066  0.3333  1.5164
18355THY    CA649352   1.900   6.582   2.141  0.6407  0.6896  0.3681
18355THY    HA649353   1.911   6.622   2.241 -2.2320  0.6806  1.3809
18356THY      O49354   1.537   7.879   7.620 -0.3727  0.4677  0.3166
18356THY     HO49355   1.627   7.846   7.636  0.0927  2.1132  2.1974
18356THY    CA149356   1.501   7.958   7.726  0.0506 -0.7122  0.5823
18356THY    CA249357   1.386   8.042   7.723  0.2337 -0.2156  0.3907
18356THY    CP149358   1.294   8.021   7.598  0.1147  0.3044  0.2415
18356THY    HP149359   1.356   7.986   7.515 -2.2236 -0.6191 -2.0413
18356THY    CP249360   1.224   8.153   7.548 -0.0774  0.3054 -0.0928
18356THY    HP249361   1.152   8.133   7.469 -2.0730  2.3835 -1.6430
18356THY    HP349362   1.300   8.219   7.503 -2.8221 -1.6528  1.9852
18356THY    HP449363   1.174   8.201   7.633  1.6944  0.2228  2.0709
18356THY    CP349364   1.187   7.919   7.636  0.0449 -0.2554 -0.3401
18356THY    HP549365   1.124   7.883   7.553 -2.3999 -0.5300  3.8936
18356THY    HP649366   1.124   7.974   7.707 -1.3964 -2.8371  1.6236
18356THY    HP749367   1.244   7.841   7.688 -0.7747 -0.3130 -0.9898
18356THY    CA349368   1.355   8.133   7.829  1.0571  0.0369 -0.3559
18356THY    HA349369   1.265   8.194   7.827  0.9515 -0.0119 -0.5120
18356THY    CA449370   1.442   8.144   7.931 -0.2438 -0.9840  0.2072
18356THY    HA449371   1.428   8.224   8.004  1.7097 -0.0825 -0.2170
18356THY    CA549372   1.568   8.076   7.930  0.0898  0.5462 -0.8770
18356THY    CM149373   1.682   8.102   8.028  0.6834 -0.0396  0.4756
18356THY    HM149374   1.673   8.010   8.088 -2.1535 -1.7075 -0.4658
18356THY    HM249375   1.663   8.190   8.090  0.8652  0.5875  0.0787
18356THY    HM349376   1.775   8.120   7.973  1.6490  1.8165  1.4048
18356THY    CA649377   1.593   7.979   7.830  0.0509  0.5919  0.3414
18356THY    HA649378   1.694   7.937   7.833  0.4350  0.8698  1.2599
18357THY      O49379   6.924   6.815   6.889  0.4497  0.5422  0.0735
18357THY     HO49380   7.010   6.859   6.878 -0.7764 -1.0918  2.2547
18357THY    CA149381   6.862   6.868   6.998 -0.0286  0.1131  0.1036
18357THY    CA249382   6.720   6.879   7.009 -0.9621  0.0760  0.0171
18357THY    CP149383   6.634   6.818   6.896 -0.1915  0.1131 -0.1436
18357THY    HP149384   6.682   6.738   6.839 -1.3771 -0.6886 -0.3070
18357THY    CP249385   6.580   6.929   6.801 -0.8135 -0.2450  1.0110
18357THY    HP249386   6.660   6.940   6.727  0.5828  0.6841 -1.8747
18357THY    HP349387   6.573   7.020   6.861  1.2668 -0.4683  1.3707
18357THY    HP449388   6.487   6.908   6.748 -1.0861  0.7685 -0.4999
18357THY    CP349389   6.510   6.737   6.952 -0.1531 -0.6538 -0.3201
18357THY    HP549390   6.466   6.674   6.874  0.5821 -0.7012 -0.7948
18357THY    HP649391   6.437   6.811   6.985  0.3875 -0.1870  0.0172
18357THY    HP749392   6.544   6.676   7.037  0.6526 -0.9980 -0.3707
18357THY    CA349393   6.666   6.927   7.133  0.2286  0.0843 -0.5026
18357THY    HA349394   6.558   6.933   7.146  0.4061  1.0680  0.9403
18357THY    CA449395   6.751   6.969   7.238 -0.3006  0.5494 -0.6849
18357THY    HA449396   6.714   7.012   7.330  1.7910  0.5605  1.3390
18357THY    CA549397   6.889   6.954   7.223 -0.7431  0.2449 -0.5737
18357THY    CM149398   6.980   6.989   7.334 -0.3365 -0.4709  0.2316
18357THY    HM149399   6.965   7.090   7.374  0.4157  1.8955 -0.5512
18357THY    HM249400   7.087   6.971   7.321  0.1728  1.3531  1.6580
18357THY    HM349401   6.966   6.913   7.411  3.3637  0.4535  0.3475
18357THY    CA649402   6.942   6.902   7.110  0.5111  0.4595  0.0242
18357THY    HA649403   7.050   6.889   7.110  0.7813 -1.5665  1.6952
18358THY      O49404   0.269   2.958   2.925 -0.1398  0.5219 -0.2379
18358THY     HO49405   0.297   3.026   2.988  1.0667 -0.8386  0.5788
18358THY    CA149406   0.348   2.847   2.957 -0.3873 -0.4899  0.0959
18358THY    CA249407   0.326   2.718   2.892  0.0821 -0.1494 -1.4503
18358THY    CP149408   0.222   2.700   2.780  0.7347  0.2899 -0.7050
18358THY    HP149409   0.176   2.798   2.762  2.5260 -0.4630  0.0342
18358THY    CP249410   0.107   2.606   2.811 -0.1891  0.2278  1.0081
18358THY    HP249411   0.037   2.632   2.892 -0.5118  0.5093 -0.6006
18358THY    HP349412   0.138   2.502   2.827  0.5574 -1.7863  0.8853
18358THY    HP449413   0.029   2.611   2.735 -1.8279  1.6936 -0.6167
18358THY    CP349414   0.277   2.692   2.637  0.2702 -0.1340  0.2382
18358THY    HP549415   0.212   2.704   2.550 -1.8380  1.1889 -0.8893
18358THY    HP649416   0.321   2.592   2.623  0.0385 -1.2966  0.2822
18358THY    HP749417   0.363   2.758   2.625  0.6418  0.9182 -0.0281
18358THY    CA349418   0.412   2.615   2.921  0.6115 -0.6755  0.2657
18358THY    HA349419   0.407   2.515   2.879  0.3916 -1.5884  0.6450
18358THY    CA449420   0.521   2.638   3.008  0.1151  0.1473 -0.1739
18358THY    HA449421   0.599   2.564   3.006 -0.0229 -0.5933 -0.2984
18358THY    CA549422   0.532   2.763   3.071 -0.5135 -0.9579 -0.0820
18358THY    CM149423   0.648   2.777   3.168  0.3278  0.7929  0.3190
18358THY    HM149424   0.604   2.788   3.268 -0.1355  0.7905 -1.2083
18358THY    HM249425   0.703   2.869   3.149 -2.2116 -0.4600  1.6666
18358THY    HM349426   0.713   2.688   3.170  0.9611 -2.3385  0.6244
18358THY    CA649427   0.451   2.868   3.048  0.2359 -0.3541 -0.0468
18358THY    HA649428   0.465   2.955   3.111  2.7923 -1.6225  0.5543
18359THY      O49429   7.901   2.018   2.928 -0.4585 -0.1575 -0.2061
18359THY     HO49430   7.841   2.094   2.910 -0.8527  2.4600  0.2054
18359THY    CA149431   8.030   2.057   2.906  0.0639  0.2395 -0.6634
18359THY    CA249432   8.129   1.959   2.869  0.8596 -0.4716 -0.2293
18359THY    CP149433   8.089   1.803   2.863  0.3112 -0.2624 -0.6386
18359THY    HP149434   7.994   1.783   2.915 -0.6575 -1.1566  1.2964
18359THY    CP249435   8.191   1.732   2.939  0.4000  0.2001  0.4953
18359THY    HP249436   8.172   1.624   2.928 -4.5882 -2.4472  1.3574
18359THY    HP349437   8.181   1.759   3.045  0.5747  0.5622 -0.7789
18359THY    HP449438   8.293   1.751   2.903  0.6420  1.0786  0.9598
18359THY    CP349439   8.067   1.752   2.721  0.5560  0.4289 -0.2747
18359THY    HP549440   8.051   1.643   2.722  1.1696  0.6545 -0.3645
18359THY    HP649441   8.155   1.758   2.656  0.3849  0.2178 -0.0744
18359THY    HP749442   7.978   1.801   2.682 -0.5647  0.1053 -2.4341
18359THY    CA349443   8.257   2.003   2.832 -0.5803 -0.0081 -0.2287
18359THY    HA349444   8.329   1.932   2.794  0.3724  0.1820  0.6172
18359THY    CA449445   8.290   2.139   2.831  0.1039 -0.2060  0.0347
18359THY    HA449446   8.387   2.171   2.794 -0.1590 -1.3425 -0.4467
18359THY    CA549447   8.196   2.229   2.867  0.0302  0.0684 -0.2606
18359THY    CM149448   8.224   2.377   2.866 -0.6620  0.6936 -0.2184
18359THY    HM149449   8.329   2.407   2.864 -0.7612 -1.7958  0.1486
18359THY    HM249450   8.180   2.420   2.957 -1.6559  0.6295 -1.0538
18359THY    HM349451   8.171   2.424   2.783  0.2996 -0.5946 -1.3436
18359THY    CA649452   8.066   2.190   2.898  0.3826 -0.0199  0.2964
18359THY    HA649453   7.986   2.262   2.918  0.5379  0.8739  0.2329
18360THY      O49454   1.981   2.961   2.642 -1.2639 -0.3805  0.5336
18360THY     HO49455   1.996   2.980   2.736  1.8126 -0.0212 -2.5420
18360THY    CA149456   2.105   2.988   2.584 -0.5696  0.2000 -0.0560
18360THY    CA249457   2.135   2.979   2.453  0.5205  0.0904 -0.2165
18360THY    CP149458   2.031   2.933   2.352  0.1862 -0.2535  0.0515
18360THY    HP149459   1.941   2.891   2.400 -0.2912 -3.2760 -2.8085
18360THY    CP249460   2.076   2.818   2.268  0.1775  0.2330 -0.3289
18360THY    HP249461   2.094   2.724   2.321 -2.0862 -0.4911 -1.2291
18360THY    HP349462   2.171   2.843   2.219  0.3645  1.4318  1.5205
18360THY    HP449463   1.999   2.781   2.199 -0.9291  1.3270 -0.1224
18360THY    CP349464   1.990   3.053   2.264 -0.4654 -0.3792  0.4193
18360THY    HP549465   2.081   3.102   2.229 -0.7436 -0.3627  0.9557
18360THY    HP649466   1.935   3.125   2.325 -1.8236  0.0158 -0.8965
18360THY    HP749467   1.924   3.035   2.178  1.6321 -2.0549  0.3891
18360THY    CA349468   2.262   3.023   2.408 -0.5042 -0.5966 -0.3283
18360THY    HA349469   2.295   3.013   2.305  1.4599 -0.2148  1.3754
18360THY    CA449470   2.355   3.063   2.502 -0.2393 -0.3969  0.0024
18360THY    HA449471   2.456   3.083   2.469 -0.2275  0.4497  1.4989
18360THY    CA549472   2.329   3.075   2.639 -0.5467  0.4438  0.0837
18360THY    CM149473   2.434   3.109   2.730 -0.3843 -0.2302  0.1609
18360THY    HM149474   2.504   3.182   2.689  0.3804  0.6840 -0.0263
18360THY    HM249475   2.484   3.011   2.739  0.1116 -2.7816  0.1090
18360THY    HM349476   2.403   3.146   2.828  1.5584  0.2073  0.7795
18360THY    CA649477   2.199   3.039   2.679 -0.0627 -0.7969  0.6094
18360THY    HA649478   2.167   3.044   2.783 -1.9645 -1.3334  0.6304
18361THY      O49479   4.425   1.075   3.809 -0.0459 -0.1580 -0.2665
18361THY     HO49480   4.421   1.051   3.903 -0.3235  0.7231  2.7354
18361THY    CA149481   4.549   1.125   3.798 -0.0301  0.0695  0.3824
18361THY    CA249482   4.627   1.089   3.689  0.1776  0.4061 -0.3449
18361THY    CP149483   4.575   0.995   3.580 -0.6383  0.3222 -0.4998
18361THY    HP149484   4.466   0.993   3.586 -0.8421 -1.3148  1.5186
18361THY    CP249485   4.633   0.851   3.587 -0.3122 -0.0045  0.1548
18361THY    HP249486   4.742   0.864   3.588 -0.0759 -3.7838 -0.3972
18361THY    HP349487   4.604   0.780   3.508 -1.8763 -0.9135  1.7320
18361THY    HP449488   4.602   0.811   3.684  2.3814  1.9829  2.5046
18361THY    CP349489   4.599   1.047   3.436  0.3933  0.0860 -0.1569
18361THY    HP549490   4.561   1.148   3.414  0.2793 -3.1126 -0.7790
18361THY    HP649491   4.560   0.985   3.355 -3.1830  0.3079  1.5398
18361THY    HP749492   4.707   1.040   3.418  0.1745 -2.4149  1.3940
18361THY    CA349493   4.755   1.139   3.679  0.8623 -0.1322  1.0320
18361THY    HA349494   4.815   1.109   3.594 -0.3524 -0.5010 -0.4783
18361THY    CA449495   4.803   1.225   3.781  0.4117  0.3220  0.2438
18361THY    HA449496   4.902   1.268   3.768 -0.4013 -2.9699  1.4785
18361THY    CA549497   4.722   1.261   3.889  0.4664 -0.4171  0.4317
18361THY    CM149498   4.761   1.361   4.001 -0.1403  0.2091 -0.4095
18361THY    HM149499   4.868   1.373   4.020 -0.1612  0.4621 -0.6268
18361THY    HM249500   4.708   1.342   4.095 -1.7673 -0.8596 -1.5032
18361THY    HM349501   4.715   1.457   3.971 -3.4240  2.7882 -0.9848
18361THY    CA649502   4.597   1.204   3.902  0.5600 -0.2327 -0.3300
18361THY    HA649503   4.527   1.239   3.977  0.8021  0.9490 -2.2422
18362THY      O49504   1.138   7.890   5.073  0.2983  1.2725  0.0083
18362THY     HO49505   1.047   7.865   5.093  0.6793  2.8161 -0.2777
18362THY    CA149506   1.154   8.022   5.089  0.4312 -0.5310 -0.3271
18362THY    CA249507   1.279   8.074   5.079  0.0993 -0.0729 -0.0620
18362THY    CP149508   1.404   7.988   5.047 -0.5935  0.7733  0.5087
18362THY    HP149509   1.399   7.891   5.097 -0.0607  1.8635  1.0216
18362THY    CP249510   1.526   8.047   5.115 -0.6924 -0.1587 -0.0638
18362THY    HP249511   1.609   7.977   5.103  1.4476  3.4314  1.5639
18362THY    HP349512   1.510   8.070   5.221 -1.2813 -0.5576  1.4887
18362THY    HP449513   1.551   8.145   5.072 -1.8784  1.4793  1.0186
18362THY    CP349514   1.423   7.967   4.898 -0.5076 -0.3800  0.5070
18362THY    HP549515   1.500   7.891   4.887 -0.5736 -0.0171  0.3829
18362THY    HP649516   1.469   8.049   4.842 -0.6298 -1.3942 -0.1028
18362THY    HP749517   1.322   7.941   4.863 -0.3884  0.0910 -0.6553
18362THY    CA349518   1.285   8.216   5.101 -0.6590 -0.2444  0.2500
18362THY    HA349519   1.381   8.267   5.093  0.1829  2.2689 -0.8040
18362THY    CA449520   1.165   8.290   5.137 -0.1674 -0.2605  0.0532
18362THY    HA449521   1.183   8.396   5.153  2.1068  2.1270 -0.5919
18362THY    CA549522   1.041   8.233   5.149 -0.1374  0.0298  0.1941
18362THY    CM149523   0.913   8.308   5.184  0.1373 -0.4794  0.5443
18362THY    HM149524   0.917   8.341   5.288  0.8261 -0.4096  0.2650
18362THY    HM249525   0.821   8.249   5.177  1.1487  0.6632 -1.3086
18362THY    HM349526   0.903   8.391   5.114  1.1665 -0.7588  0.4484
18362THY    CA649527   1.045   8.091   5.129  0.2713 -0.5901 -0.2575
18362THY    HA649528   0.949   8.041   5.134  0.4863  1.2377 -0.5690
18363THY      O49529   2.168   4.365   7.889 -0.1552 -0.7657  0.5523
18363THY     HO49530   2.237   4.434   7.884  0.8668  1.0306 -0.2739
18363THY    CA149531   2.109   4.348   7.773 -0.6196  1.3681  0.6132
18363THY    CA249532   2.014   4.244   7.745  0.1846  0.1439  0.1273
18363THY    CP149533   1.959   4.148   7.857  0.1604  0.1020 -0.3779
18363THY    HP149534   2.019   4.160   7.948  1.4745 -0.3535 -2.7926
18363THY    CP249535   1.973   4.002   7.813  0.5589 -0.2007 -0.5486
18363THY    HP249536   1.965   3.941   7.903 -2.3473 -1.4348 -2.2028
18363THY    HP349537   2.064   3.988   7.754 -0.1159 -1.5254  0.3995
18363THY    HP449538   1.892   3.964   7.748 -0.1227  0.8757 -0.9855
18363THY    CP349539   1.809   4.176   7.889 -0.3724 -0.1160 -0.2389
18363THY    HP549540   1.791   4.278   7.926 -0.0518  2.1718 -0.9410
18363THY    HP649541   1.776   4.105   7.967  2.0983 -0.1760 -1.5775
18363THY    HP749542   1.748   4.155   7.800 -1.6774  1.2862 -2.9516
18363THY    CA349543   1.981   4.225   7.608  0.4208 -0.1177  0.0526
18363THY    HA349544   1.924   4.141   7.569  1.2008 -2.7450  0.6463
18363THY    CA449545   2.025   4.313   7.514  0.4116  0.5189 -0.0025
18363THY    HA449546   1.979   4.310   7.416 -0.8557  1.0297  1.3781
18363THY    CA549547   2.115   4.419   7.544 -0.0176  0.6156  0.0027
18363THY    CM149548   2.167   4.519   7.444  0.6344  0.1620  0.8849
18363THY    HM149549   2.259   4.565   7.481  0.1152  1.6738  0.7810
18363THY    HM249550   2.099   4.601   7.416  0.0293 -0.8734  0.0473
18363THY    HM349551   2.196   4.461   7.356  1.0980  1.5345 -1.0515
18363THY    CA649552   2.161   4.427   7.675 -0.3002 -0.1016  0.1830
18363THY    HA649553   2.229   4.510   7.695 -0.7898 -1.6138  0.9884
18364THY      O49554   8.161   0.540   5.095  0.5799  0.1525  0.1004
18364THY     HO49555   8.074   0.580   5.077  0.1686  2.8322  0.6122
18364THY    CA149556   8.240   0.649   5.125  0.3856 -0.2953  0.0458
18364THY    CA249557   8.364   0.642   5.182  0.1979  0.6961 -0.4659
18364THY    CP149558   8.427   0.512   5.223  0.0029 -0.2533  0.4866
18364THY    HP149559   8.354   0.444   5.269 -0.1202 -1.6564 -0.3635
18364THY    CP249560   8.544   0.522   5.323 -0.2641 -0.2175  0.4205
18364THY    HP249561   8.636   0.566   5.283 -0.5203  0.2483  1.3995
18364THY    HP349562   8.567   0.427   5.373 -0.2345 -0.4464  0.3078
18364THY    HP449563   8.504   0.581   5.407 -1.4488 -0.8473  0.5429
18364THY    CP349564   8.489   0.446   5.093  0.4974  0.0127 -1.0433
18364THY    HP549565   8.570   0.508   5.052 -1.2384 -0.9029  0.7280
18364THY    HP649566   8.404   0.432   5.026 -0.2824  0.6650  0.3071
18364THY    HP749567   8.534   0.349   5.117 -0.4187 -0.8504 -1.6964
18364THY    CA349568   8.440   0.765   5.194 -0.1655  0.6613 -0.3491
18364THY    HA349569   8.540   0.763   5.235  0.6106 -1.1715 -0.9533
18364THY    CA449570   8.381   0.888   5.152  0.1109  0.2761  0.7524
18364THY    HA449571   8.420   0.986   5.177 -0.4684  0.0689  1.0437
18364THY    CA549572   8.252   0.885   5.102 -0.9814  0.1274  0.1816
18364THY    CM149573   8.184   1.015   5.064 -0.2336 -0.2280 -0.2237
18364THY    HM149574   8.261   1.088   5.036 -1.8388 -0.0515  1.6207
18364THY    HM249575   8.132   1.059   5.150  0.3707  0.4778 -0.8685
18364THY    HM349576   8.113   1.016   4.981 -0.9607  0.2729  3.5335
18364THY    CA649577   8.181   0.768   5.092 -0.5283  0.1303 -0.2365
18364THY    HA649578   8.083   0.766   5.047 -0.6043  0.3068 -0.4620
18365THY      O49579   6.359   7.407   7.816  0.5563 -0.2542 -0.2607
18365THY     HO49580   6.427   7.475   7.803  1.3742 -1.8441 -1.3200
18365THY    CA149581   6.303   7.384   7.693  0.4711 -0.1785 -0.3684
18365THY    CA249582   6.228   7.270   7.680 -0.1787  0.7776 -0.1226
18365THY    CP149583   6.217   7.169   7.801  0.3342  0.1161 -0.1289
18365THY    HP149584   6.305   7.177   7.866 -0.7365  1.4422  1.6926
18365THY    CP249585   6.175   7.027   7.758  0.1368 -0.4549  0.5225
18365THY    HP249586   6.074   7.036   7.717  0.2537 -0.6555  0.9437
18365THY    HP349587   6.174   6.971   7.853 -0.0215 -0.1378  1.0594
18365THY    HP449588   6.248   6.972   7.698  2.5031  0.7238  2.1981
18365THY    CP349589   6.103   7.229   7.891 -0.6021 -0.3981  0.4575
18365THY    HP549590   6.112   7.336   7.918  0.4131  2.0362 -0.1595
18365THY    HP649591   6.110   7.176   7.987 -2.1990 -0.2685  0.4455
18365THY    HP749592   5.998   7.218   7.862 -0.5655  0.1125 -1.4450
18365THY    CA349593   6.181   7.237   7.556 -0.1696 -0.4619 -0.0348
18365THY    HA349594   6.119   7.148   7.544  0.0295 -1.5848 -0.0407
18365THY    CA449595   6.193   7.335   7.448 -0.8387  0.2040  0.7484
18365THY    HA449596   6.149   7.312   7.352  0.3088 -0.0644 -0.4826
18365THY    CA549597   6.257   7.458   7.470 -0.0909 -0.0899  0.5103
18365THY    CM149598   6.285   7.549   7.357 -0.2240 -0.1669 -0.2641
18365THY    HM149599   6.267   7.656   7.373 -1.2205 -2.0781 -0.1170
18365THY    HM249600   6.218   7.518   7.276 -1.1366  0.0459  1.0930
18365THY    HM349601   6.388   7.533   7.324 -0.4707 -1.0314 -0.1225
18365THY    CA649602   6.317   7.479   7.593  0.2288 -0.1222  0.6910
18365THY    HA649603   6.376   7.567   7.616  0.9633  3.2175 -0.5089
18366THY      O49604   1.216   8.468   4.728 -0.0928 -0.3374 -0.2343
18366THY     HO49605   1.122   8.454   4.705  0.1403  0.0372 -2.8730
18366THY    CA149606   1.235   8.559   4.826  0.3540  0.7089 -0.5022
18366THY    CA249607   1.366   8.600   4.871  0.0729 -0.3136 -0.6474
18366THY    CP149608   1.491   8.554   4.804  0.6461 -0.9489 -0.3081
18366THY    HP149609   1.460   8.538   4.700 -0.9159 -0.7992  1.3725
18366THY    CP249610   1.566   8.439   4.886  0.1778 -0.1477 -0.0747
18366THY    HP249611   1.669   8.423   4.853 -0.2666 -0.8983 -1.5869
18366THY    HP349612   1.523   8.338   4.884  1.5332  1.7454 -0.7567
18366THY    HP449613   1.564   8.460   4.994  0.2872  0.0468 -1.0167
18366THY    CP349614   1.587   8.676   4.798 -0.2909  0.2926  0.2010
18366THY    HP549615   1.554   8.751   4.725  0.1117 -2.0541 -1.7485
18366THY    HP649616   1.681   8.633   4.761 -0.0890 -0.0369  0.9205
18366THY    HP749617   1.612   8.724   4.893 -0.1748  0.1976  0.3302
18366THY    CA349618   1.378   8.677   4.987  0.3782 -0.1888  0.1503
18366THY    HA349619   1.468   8.699   5.044 -0.9409  2.1296 -0.0633
18366THY    CA449620   1.260   8.731   5.044  0.0665 -0.1581  0.1260
18366THY    HA449621   1.263   8.794   5.132  1.9922  0.0401 -0.1951
18366THY    CA549622   1.132   8.687   5.005 -0.1686 -0.5298  0.0738
18366THY    CM149623   1.010   8.728   5.078  0.2144  0.2274 -0.2201
18366THY    HM149624   0.917   8.714   5.022  0.4786 -0.4457  0.5939
18366THY    HM249625   1.013   8.834   5.104 -1.3395 -1.5273  0.2995
18366THY    HM349626   0.988   8.671   5.169 -2.9336 -0.4580 -0.2730
18366THY    CA649627   1.124   8.605   4.891 -0.1961  0.0238 -0.3132
18366THY    HA649628   1.027   8.567   4.862  0.3966 -0.2808 -1.6674
18367THY      O49629   7.031   5.133   2.059  0.6362 -0.0273  0.4657
18367THY     HO49630   7.111   5.085   2.085  0.8639 -0.5872  0.5346
18367THY    CA149631   7.007   5.106   1.929  0.3367 -0.2014  0.1504
18367THY    CA249632   6.936   5.194   1.842  0.0498  0.0904  0.2430
18367THY    CP149633   6.888   5.337   1.893 -0.3755  0.1705  0.3155
18367THY    HP149634   6.865   5.331   2.000  0.2374  0.3638  1.2030
18367THY    CP249635   6.759   5.392   1.828 -0.1761  0.3099 -0.1479
18367THY    HP249636   6.670   5.335   1.856 -1.0481  0.5964  1.2987
18367THY    HP349637   6.771   5.409   1.720 -0.6694  0.5056  1.6967
18367THY    HP449638   6.734   5.490   1.870  1.9696  1.4033  0.0058
18367THY    CP349639   7.006   5.444   1.876 -0.4857  0.1818 -0.2377
18367THY    HP549640   7.099   5.399   1.912  1.0497 -0.4285  2.2316
18367THY    HP649641   6.984   5.536   1.931  1.7470  0.5006  0.1625
18367THY    HP749642   7.009   5.472   1.770 -0.3948  0.5717  1.3092
18367THY    CA349643   6.904   5.150   1.716  0.0388 -0.8417 -0.3150
18367THY    HA349644   6.857   5.221   1.650 -1.6154  1.1760  0.5610
18367THY    CA449645   6.937   5.016   1.669  0.1085 -0.8792  0.1706
18367THY    HA449646   6.914   4.979   1.569 -1.5092  0.0029 -1.3425
18367THY    CA549647   7.004   4.934   1.752  0.6317 -0.5393 -1.0699
18367THY    CM149648   7.045   4.792   1.705 -0.7065  0.3060 -0.2590
18367THY    HM149649   6.968   4.771   1.629 -0.0293 -1.2539  2.3970
18367THY    HM249650   7.027   4.717   1.782 -0.8003  0.2392 -0.3051
18367THY    HM349651   7.146   4.781   1.664 -1.5303 -1.9127 -0.2240
18367THY    CA649652   7.042   4.978   1.880 -0.1395  0.0370 -0.0690
18367THY    HA649653   7.101   4.910   1.941 -0.0171  0.0973  0.0923
18368THY      O49654   2.678   7.327   4.569  0.6489  0.6314 -0.2907
18368THY     HO49655   2.699   7.422   4.581  0.3939 -3.0181  0.3755
18368THY    CA149656   2.735   7.293   4.450 -0.6298 -0.0292 -0.4365
18368THY    CA249657   2.737   7.165   4.393  0.3164 -0.2384 -0.8623
18368THY    CP149658   2.662   7.057   4.458  0.4448  0.9287 -0.2996
18368THY    HP149659   2.563   7.091   4.489  0.6915  0.6468  0.6928
18368THY    CP249660   2.742   7.010   4.579 -0.5302 -0.2997 -0.0058
18368THY    HP249661   2.729   7.088   4.655 -0.4733  2.2671 -2.3523
18368THY    HP349662   2.848   6.986   4.566 -0.4227  1.6129 -0.7150
18368THY    HP449663   2.686   6.925   4.620  1.1962 -1.4651 -1.7693
18368THY    CP349664   2.630   6.934   4.370 -0.6794 -0.1151  0.2054
18368THY    HP549665   2.722   6.884   4.337 -0.8039 -0.3453  0.1291
18368THY    HP649666   2.565   6.971   4.291 -0.6829  0.0594  0.5789
18368THY    HP749667   2.581   6.864   4.438  3.5253  1.2567 -1.7504
18368THY    CA349668   2.821   7.144   4.285 -0.1657  0.7492  0.3787
18368THY    HA349669   2.837   7.050   4.233  3.4628 -2.7702  2.6461
18368THY    CA449670   2.894   7.255   4.224  0.2343  0.2773  0.7727
18368THY    HA449671   2.951   7.253   4.131 -1.9979 -1.1848  1.7519
18368THY    CA549672   2.891   7.378   4.286  0.6518  0.0852 -0.1689
18368THY    CM149673   2.960   7.497   4.228  0.3792 -0.0426 -0.0941
18368THY    HM149674   2.994   7.568   4.305  0.3976 -1.0356  0.9931
18368THY    HM249675   2.884   7.556   4.176  0.8961 -2.1976 -1.2276
18368THY    HM349676   3.044   7.476   4.160 -0.6361 -1.7130  1.0297
18368THY    CA649677   2.805   7.402   4.392  0.2207  0.1299  0.8345
18368THY    HA649678   2.797   7.503   4.431 -1.7674 -0.2764  0.8640
18369THY      O49679   8.300   5.817   5.118  0.0428  0.3362 -0.7878
18369THY     HO49680   8.342   5.848   5.036 -0.1683 -0.3542 -2.2466
18369THY    CA149681   8.290   5.683   5.090 -0.0990  0.4986 -0.1123
18369THY    CA249682   8.189   5.599   5.145  0.9734 -0.5052 -0.3004
18369THY    CP149683   8.095   5.666   5.251 -0.0619  0.2348 -0.5716
18369THY    HP149684   8.129   5.762   5.290  0.5589 -1.8715  0.1073
18369THY    CP249685   8.079   5.581   5.378 -0.8264  0.3132 -0.0209
18369THY    HP249686   8.005   5.620   5.449 -0.7326 -0.1901  1.1160
18369THY    HP349687   8.166   5.560   5.440 -0.2064 -1.1956 -2.2600
18369THY    HP449688   8.039   5.482   5.352  2.8251  1.8208 -2.0683
18369THY    CP349689   7.953   5.678   5.197  0.2939 -0.0583 -1.0676
18369THY    HP549690   7.885   5.602   5.237  1.3288 -0.4514 -2.2305
18369THY    HP649691   7.959   5.676   5.088 -0.6822 -0.2001  1.0288
18369THY    HP749692   7.910   5.774   5.228  0.2088  1.3440 -1.5396
18369THY    CA349693   8.174   5.470   5.099 -0.4151 -0.0868 -0.1916
18369THY    HA349694   8.096   5.409   5.144 -1.2385 -1.1192  0.0628
18369THY    CA449695   8.271   5.418   5.004 -0.2382  0.0314  0.1924
18369THY    HA449696   8.260   5.316   4.969  0.9383  0.3587 -0.0508
18369THY    CA549697   8.373   5.507   4.959 -0.6475  0.6662  0.5556
18369THY    CM149698   8.477   5.459   4.859  0.3598 -0.0732 -0.7627
18369THY    HM149699   8.575   5.436   4.903  1.0825 -1.4708 -0.5028
18369THY    HM249700   8.495   5.540   4.787 -1.7960  1.4668  1.2058
18369THY    HM349701   8.433   5.379   4.798  2.9270 -0.6409 -1.8615
18369THY    CA649702   8.376   5.637   4.997  0.9257 -0.5221 -0.2942
18369THY    HA649703   8.453   5.696   4.950  2.3931  1.9481 -0.1135
18370THY      O49704   6.189   8.612   4.210 -0.0087  0.2629 -0.0200
18370THY     HO49705   6.236   8.627   4.294  0.3123  0.0048  0.4531
18370THY    CA149706   6.086   8.526   4.223 -0.9336  0.0447  0.3881
18370THY    CA249707   6.029   8.467   4.114  0.0886 -0.1373  0.1874
18370THY    CP149708   6.091   8.491   3.972  0.0332  0.3601 -0.0759
18370THY    HP149709   6.183   8.550   3.983 -0.2974  1.2182  0.2909
18370THY    CP249710   5.998   8.557   3.870 -0.6162  0.2872 -0.5306
18370THY    HP249711   5.955   8.649   3.911  0.8182  0.8715 -0.0833
18370THY    HP349712   5.920   8.497   3.822 -0.9968  0.2897 -0.0447
18370THY    HP449713   6.064   8.581   3.786  0.7914  1.6774  0.7339
18370THY    CP349714   6.137   8.357   3.915 -0.3557  0.7924  0.1616
18370THY    HP549715   6.212   8.306   3.977  0.6850  0.3908  1.1730
18370THY    HP649716   6.176   8.391   3.818 -0.0988  0.7593 -0.2160
18370THY    HP749717   6.049   8.295   3.895  0.9842 -0.5265 -1.4359
18370THY    CA349718   5.914   8.385   4.132 -0.8065  0.0413 -0.0040
18370THY    HA349719   5.856   8.340   4.052 -0.0490 -0.0201 -0.9003
18370THY    CA449720   5.873   8.363   4.267 -0.2558  0.2978 -0.7614
18370THY    HA449721   5.790   8.300   4.299 -0.2808  3.1766  0.5662
18370THY    CA549722   5.938   8.428   4.376 -0.7626  0.1514 -0.1201
18370THY    CM149723   5.892   8.403   4.511 -0.8448 -0.5406  0.8160
18370THY    HM149724   5.975   8.383   4.579 -0.4488 -1.7053 -2.1710
18370THY    HM249725   5.836   8.308   4.513 -0.0489  1.9802  0.3253
18370THY    HM349726   5.835   8.483   4.559 -0.8096  2.1206 -0.6484
18370THY    CA649727   6.045   8.508   4.350  0.2283 -0.2229 -0.0407
18370THY    HA649728   6.099   8.550   4.435  1.3152 -0.5358 -0.7546
18371THY      O49729   2.788   4.660   7.190 -0.0097  0.1306 -0.7717
18371THY     HO49730   2.786   4.752   7.158  2.6456 -0.8165 -0.9514
18371THY    CA149731   2.725   4.585   7.099  1.3806 -0.0205 -0.1645
18371THY    CA249732   2.762   4.448   7.078  0.5252 -0.1513 -0.2513
18371THY    CP149733   2.875   4.396   7.165 -0.0647 -0.0694  1.0129
18371THY    HP149734   2.873   4.430   7.269 -2.4614  0.5467 -0.7114
18371THY    CP249735   3.003   4.439   7.093  0.7313 -0.5105  0.3782
18371THY    HP249736   3.004   4.547   7.074 -0.3956 -0.2550  0.4469
18371THY    HP349737   2.999   4.386   6.997 -0.6406  0.2486 -0.9972
18371THY    HP449738   3.089   4.408   7.154 -0.4995  0.0445 -2.2747
18371THY    CP349739   2.872   4.242   7.175 -0.3587 -0.5876  0.1239
18371THY    HP549740   2.906   4.203   7.271 -1.1421 -0.7336 -0.9804
18371THY    HP649741   2.947   4.209   7.102  0.1740 -0.0396  0.1088
18371THY    HP749742   2.772   4.201   7.158 -1.2038 -0.0199  1.8553
18371THY    CA349743   2.709   4.381   6.969  0.1497 -0.4800  0.5624
18371THY    HA349744   2.750   4.283   6.945 -0.1823 -0.3260  0.3816
18371THY    CA449745   2.607   4.444   6.891  0.2184 -0.5880 -0.5757
18371THY    HA449746   2.567   4.401   6.800 -0.3971 -1.3455  1.4821
18371THY    CA549747   2.569   4.574   6.918  0.7995  0.2805 -0.4949
18371THY    CM149748   2.471   4.631   6.829 -0.2073 -0.3543 -0.8325
18371THY    HM149749   2.402   4.554   6.792 -1.5069  2.0351 -0.9069
18371THY    HM249750   2.517   4.686   6.746 -1.0151  0.7129  1.5489
18371THY    HM349751   2.410   4.695   6.893 -1.0666 -0.5664 -1.4219
18371THY    CA649752   2.626   4.645   7.022 -0.0611 -0.6800  0.3200
18371THY    HA649753   2.603   4.751   7.030  1.8601 -1.0273  0.8211
18372THY      O49754   7.536   7.842   2.034 -0.5415 -0.4111  0.7076
18372THY     HO49755   7.590   7.891   2.099  2.8071 -0.6058 -2.3169
18372THY    CA149756   7.622   7.752   1.981  0.1414  0.2213 -0.2506
18372THY    CA249757   7.574   7.626   1.932 -1.3469 -0.4621  0.9634
18372THY    CP149758   7.424   7.600   1.938 -0.0188 -0.1330 -0.1721
18372THY    HP149759   7.360   7.686   1.960 -2.0898 -2.3974 -1.0128
18372THY    CP249760   7.381   7.488   2.042  0.3845 -0.3893  0.0500
18372THY    HP249761   7.430   7.395   2.012  0.0767 -3.1699  0.7062
18372THY    HP349762   7.275   7.459   2.042  0.7503  0.1736 -1.3702
18372THY    HP449763   7.411   7.514   2.144 -0.3688 -0.0537 -0.3554
18372THY    CP349764   7.367   7.563   1.799  0.8608 -0.0103 -0.3476
18372THY    HP549765   7.392   7.630   1.716 -1.6922 -1.6240 -1.2412
18372THY    HP649766   7.258   7.562   1.804  0.8584  0.0483  0.0756
18372THY    HP749767   7.409   7.469   1.760 -1.5464 -1.1630 -1.0312
18372THY    CA349768   7.669   7.538   1.877  0.5622  1.1164 -0.7944
18372THY    HA349769   7.648   7.437   1.844 -2.1013  0.5944 -0.1281
18372THY    CA449770   7.807   7.564   1.896  0.2898  0.5145 -0.6176
18372THY    HA449771   7.877   7.488   1.864  1.7187 -0.6961  1.1113
18372THY    CA549772   7.850   7.687   1.943 -0.5701 -0.3702 -0.2530
18372THY    CM149773   7.992   7.729   1.953  0.1013  0.4439  0.0340
18372THY    HM149774   8.003   7.777   2.051 -0.4055  0.0316  1.0064
18372THY    HM249775   8.012   7.816   1.890  0.5839 -0.2322 -0.5466
18372THY    HM349776   8.064   7.649   1.933 -0.2341 -0.8799  0.0331
18372THY    CA649777   7.755   7.775   1.988 -0.1289  0.2596 -0.1803
18372THY    HA649778   7.788   7.861   2.045  0.5054 -0.6783  0.2180
18373THY      O49779   4.677   3.047   1.571 -0.1897 -0.4076  0.3524
18373THY     HO49780   4.685   3.115   1.503  1.3725  0.2022  0.8239
18373THY    CA149781   4.798   3.019   1.625 -0.0472 -0.1261 -0.0293
18373THY    CA249782   4.833   2.889   1.666  0.0828  1.1091 -0.1102
18373THY    CP149783   4.728   2.780   1.669  0.4696  0.9197  0.5243
18373THY    HP149784   4.648   2.799   1.597 -0.4317  2.3046  2.2141
18373THY    CP249785   4.646   2.777   1.803  0.2477 -0.6712 -0.1624
18373THY    HP249786   4.589   2.684   1.815 -0.4870  1.6015  0.5217
18373THY    HP349787   4.569   2.853   1.821  0.9311  0.7931  0.1941
18373THY    HP449788   4.715   2.768   1.887 -1.1867  0.4177 -1.5462
18373THY    CP349789   4.778   2.635   1.638  0.2489 -0.2154 -0.2160
18373THY    HP549790   4.858   2.627   1.564  1.8466  1.5213 -0.9723
18373THY    HP649791   4.689   2.575   1.614 -0.9950  1.0489  1.0206
18373THY    HP749792   4.818   2.598   1.733 -0.2114 -0.1596 -0.5768
18373THY    CA349793   4.963   2.872   1.718 -0.2211  0.1746 -0.6213
18373THY    HA349794   4.994   2.771   1.744 -2.3866  0.2226 -1.3129
18373THY    CA449795   5.056   2.977   1.714  0.5369  0.0694 -0.1590
18373THY    HA449796   5.161   2.958   1.736  0.1578  1.5038 -0.7885
18373THY    CA549797   5.015   3.103   1.674 -0.4439 -0.2364  0.0673
18373THY    CM149798   5.123   3.207   1.669 -0.0147  0.3151  0.9351
18373THY    HM149799   5.192   3.183   1.750  0.2345 -0.3008 -0.5429
18373THY    HM249800   5.087   3.310   1.683 -0.0388  0.1653  0.9475
18373THY    HM349801   5.180   3.195   1.576 -0.6646  0.2314 -2.4604
18373THY    CA649802   4.886   3.130   1.633 -0.0801 -1.1095  0.3895
18373THY    HA649803   4.862   3.228   1.593 -1.0880 -0.3176  0.4776
18374THY      O49804   8.868   8.859   3.053  0.0872  0.3713  0.0815
18374THY     HO49805   8.791   8.800   3.040  1.6477  0.9220 -2.2005
18374THY    CA149806   8.854   8.949   2.955  0.0913 -0.3120 -0.3066
18374THY    CA249807   8.968   8.998   2.892  0.3499 -0.9959  0.6107
18374THY    CP149808   9.103   8.963   2.944 -0.0117  0.0007  0.0502
18374THY    HP149809   9.173   9.006   2.871  0.3109 -0.4052 -1.1071
18374THY    CP249810   9.140   8.807   2.937 -0.1916  0.0366 -0.4145
18374THY    HP249811   9.246   8.785   2.925 -0.4710  0.3237 -2.0792
18374THY    HP349812   9.083   8.768   2.852 -1.2436  0.3586  0.3615
18374THY    HP449813   9.107   8.757   3.029  0.2915 -0.0998 -0.9937
18374THY    CP349814   9.140   9.025   3.079  0.6512 -0.1281  0.4054
18374THY    HP549815   9.060   8.998   3.148  0.2710 -0.3928  0.8518
18374THY    HP649816   9.146   9.135   3.072 -3.1123 -1.0272  0.6643
18374THY    HP749817   9.239   8.995   3.116  1.4581 -1.6661  1.0978
18374THY    CA349818   8.959   9.083   2.779  0.2126 -1.1374  0.7042
18374THY    HA349819   9.052   9.116   2.734  0.8920  0.3131  0.8431
18374THY    CA449820   8.826   9.114   2.742  0.3614  0.2262 -0.0753
18374THY    HA449821   8.819   9.175   2.652  2.8500  0.1840  0.2438
18374THY    CA549822   8.714   9.070   2.800  0.2859  0.3271 -0.3452
18374THY    CM149823   8.584   9.102   2.733  0.7356 -0.1041  0.2688
18374THY    HM149824   8.580   9.049   2.637  0.0190 -0.2123  0.4976
18374THY    HM249825   8.561   9.209   2.724  0.0715  2.0980  0.3568
18374THY    HM349826   8.505   9.077   2.805  0.7684  0.2183  1.0536
18374THY    CA649827   8.731   8.981   2.909 -0.2097 -0.1891  0.1833
18374THY    HA649828   8.642   8.943   2.958 -0.8505 -1.6889 -0.3291
18375THY      O49829   5.706   1.829   1.848 -0.2159  0.1043 -0.1980
18375THY     HO49830   5.640   1.790   1.789 -0.4085 -0.0268  0.3171
18375THY    CA149831   5.656   1.800   1.968  0.2192 -0.3518  0.0806
18375THY    CA249832   5.702   1.857   2.088 -0.5416  0.6089  0.2709
18375THY    CP149833   5.832   1.944   2.082 -0.7476  0.3273  0.5182
18375THY    HP149834   5.836   2.006   1.992 -1.4312  0.7869  1.2655
18375THY    CP249835   5.952   1.855   2.092  0.5635 -0.7253  0.3814
18375THY    HP249836   6.043   1.916   2.087 -0.1399  1.2992  1.6948
18375THY    HP349837   5.949   1.779   2.013 -1.0309 -0.5765  0.2631
18375THY    HP449838   5.947   1.800   2.187 -0.0163 -0.6277  0.5926
18375THY    CP349839   5.837   2.054   2.185 -0.3585  0.1578 -0.5573
18375THY    HP549840   5.748   2.118   2.189  0.5051 -1.2623  0.8054
18375THY    HP649841   5.919   2.125   2.172 -2.3288  3.6505  2.7250
18375THY    HP749842   5.861   2.010   2.283 -1.5446 -0.1205 -1.8801
18375THY    CA349843   5.648   1.812   2.210  0.3088 -0.3782 -0.3706
18375THY    HA349844   5.690   1.855   2.301  0.3968 -1.6914  2.6071
18375THY    CA449845   5.538   1.722   2.203  0.2246  0.0492  0.2434
18375THY    HA449846   5.489   1.683   2.292  1.7863  0.7032 -0.2750
18375THY    CA549847   5.483   1.682   2.082 -0.4149  0.2855 -0.4659
18375THY    CM149848   5.395   1.563   2.084  0.3251  0.2654 -0.2881
18375THY    HM149849   5.338   1.562   1.990  2.4467 -1.1306  0.8728
18375THY    HM249850   5.318   1.575   2.161  2.2593  2.0992  1.1363
18375THY    HM349851   5.450   1.469   2.097 -0.0434  0.4344 -0.4796
18375THY    CA649852   5.548   1.714   1.965 -0.3535  0.4054  0.7097
18375THY    HA649853   5.505   1.680   1.872 -0.0796 -0.3963  2.4193
18376THY      O49854   8.174   5.325   1.679  0.5839  0.1556 -0.2614
18376THY     HO49855   8.213   5.251   1.630 -1.8046 -0.7827 -0.9911
18376THY    CA149856   8.063   5.282   1.750  0.4069  0.5649 -0.6815
18376THY    CA249857   7.973   5.372   1.818  0.2772  0.2076  1.1689
18376THY    CP149858   7.991   5.521   1.816 -0.5257  0.0397 -1.0517
18376THY    HP149859   8.082   5.549   1.761  0.0933  0.9090 -1.3258
18376THY    CP249860   8.035   5.574   1.954 -0.2819 -0.3735 -0.0135
18376THY    HP249861   8.053   5.682   1.951  0.7440  1.0626 -0.1197
18376THY    HP349862   8.124   5.526   1.995 -1.9349  1.2440 -1.8748
18376THY    HP449863   7.957   5.546   2.026  1.1167  1.2803  0.1806
18376THY    CP349864   7.874   5.600   1.757 -0.6406 -0.2276  0.5025
18376THY    HP549865   7.902   5.691   1.703 -1.1321  1.1942  1.5209
18376THY    HP649866   7.796   5.616   1.832 -0.3822  0.2667 -0.4662
18376THY    HP749867   7.832   5.542   1.673  0.7872 -2.3693  2.4005
18376THY    CA349868   7.875   5.319   1.910 -0.4406  0.1274 -0.5116
18376THY    HA349869   7.808   5.386   1.963 -0.5451 -0.3127 -0.2606
18376THY    CA449870   7.857   5.178   1.909  0.1092 -0.1528 -0.1189
18376THY    HA449871   7.774   5.140   1.967  1.5039  1.7556 -0.4249
18376THY    CA549872   7.940   5.095   1.835 -0.1008 -0.2721  0.2491
18376THY    CM149873   7.932   4.942   1.844 -0.1701  0.3156 -0.1550
18376THY    HM149874   8.008   4.892   1.784 -1.0946  1.1804 -2.7788
18376THY    HM249875   7.834   4.903   1.814 -0.6675 -1.3072  2.1200
18376THY    HM349876   7.958   4.913   1.947  0.8776 -0.0703 -0.6324
18376THY    CA649877   8.034   5.148   1.754 -0.1243  0.1559 -0.3099
18376THY    HA649878   8.091   5.085   1.686  1.0550 -0.2461  1.1454
18377THY      O49879   2.440   6.020   5.561 -0.4221 -0.5236 -0.3259
18377THY     HO49880   2.530   5.989   5.544 -0.5250  0.2539 -1.0808
18377THY    CA149881   2.365   5.918   5.513 -1.2095  0.5680  0.2031
18377THY    CA249882   2.235   5.933   5.469  0.1030  0.3869 -0.1764
18377THY    CP149883   2.160   6.065   5.479  0.4057  0.5218  0.5289
18377THY    HP149884   2.227   6.148   5.504 -0.2733  0.9623  0.9496
18377THY    CP249885   2.046   6.058   5.585 -0.0132 -0.2930 -0.4842
18377THY    HP249886   1.974   5.979   5.562  2.2405  0.5002 -2.9114
18377THY    HP349887   2.009   6.161   5.594 -1.7683  1.2931 -1.1842
18377THY    HP449888   2.093   6.025   5.678  3.1481 -1.1994  1.0605
18377THY    CP349889   2.102   6.110   5.348 -0.0244 -0.1824  0.5904
18377THY    HP549890   2.181   6.127   5.273 -0.2687 -0.4237  0.6616
18377THY    HP649891   2.042   6.202   5.345  1.4268 -2.4619  1.5576
18377THY    HP749892   2.041   6.028   5.310 -1.9691 -2.4953  2.9351
18377THY    CA349893   2.170   5.820   5.419  0.0938 -0.7205 -0.5971
18377THY    HA349894   2.069   5.835   5.384 -0.3881  1.0119  0.5012
18377THY    CA449895   2.236   5.698   5.404 -0.5709 -0.7909 -0.2482
18377THY    HA449896   2.191   5.606   5.368  0.9515 -0.4218 -1.1700
18377THY    CA549897   2.363   5.681   5.455 -0.4076  0.2393  0.5041
18377THY    CM149898   2.428   5.544   5.438  0.7575 -0.2111  1.0337
18377THY    HM149899   2.458   5.517   5.336  0.4259  0.1473 -0.8621
18377THY    HM249900   2.353   5.471   5.473 -0.6468  0.1264  2.5796
18377THY    HM349901   2.516   5.525   5.499  0.8088 -0.8936 -1.2877
18377THY    CA649902   2.428   5.787   5.514 -0.4200 -0.6304  0.4050
18377THY    HA649903   2.531   5.782   5.549 -0.7924  1.0187  2.6145
18378THY      O49904   7.252   6.386   3.843  0.1036  0.0452  0.2679
18378THY     HO49905   7.344   6.408   3.866  1.5725 -2.6359 -2.3172
18378THY    CA149906   7.221   6.432   3.718 -0.8949  0.1197 -0.1894
18378THY    CA249907   7.089   6.432   3.659 -0.5041 -0.2879 -0.7694
18378THY    CP149908   6.973   6.380   3.733 -0.5611 -0.3486  0.2227
18378THY    HP149909   7.007   6.313   3.813 -2.9773  1.1740  0.6843
18378THY    CP249910   6.865   6.302   3.654  0.5552 -0.4225  0.2591
18378THY    HP249911   6.777   6.275   3.713  1.1807  0.1944 -0.5055
18378THY    HP349912   6.908   6.207   3.619 -0.9133  0.4552 -0.7852
18378THY    HP449913   6.830   6.353   3.564 -2.2602 -0.0267 -0.8096
18378THY    CP349914   6.882   6.498   3.794 -0.0747 -0.3275 -0.2174
18378THY    HP549915   6.941   6.556   3.867 -0.7425  1.3305 -1.5453
18378THY    HP649916   6.805   6.453   3.857  0.7163  2.0871  1.6023
18378THY    HP749917   6.846   6.568   3.717  1.9727 -1.1196  0.0510
18378THY    CA349918   7.076   6.491   3.530 -0.0433 -0.3547  1.3842
18378THY    HA349919   6.976   6.495   3.488  0.0713 -0.7801  0.1220
18378THY    CA449920   7.186   6.543   3.462  0.2118 -0.0219 -0.5645
18378THY    HA449921   7.176   6.591   3.365  0.8849  1.7863  3.5949
18378THY    CA549922   7.304   6.541   3.526 -0.0349  0.3241  0.3403
18378THY    CM149923   7.432   6.589   3.453 -1.2768 -0.3845  0.0289
18378THY    HM149924   7.429   6.697   3.468 -1.7960  1.7505 -0.2408
18378THY    HM249925   7.430   6.569   3.345 -0.2268 -1.0194  2.8384
18378THY    HM349926   7.518   6.540   3.501 -1.7042 -0.8058 -1.1779
18378THY    CA649927   7.322   6.490   3.651 -0.2220  0.0151 -0.2244
18378THY    HA649928   7.418   6.495   3.702 -2.2285  4.2435 -0.5534
18379THY      O49929   5.091   2.071   6.104  1.0290  0.4573 -0.2488
18379THY     HO49930   5.171   2.016   6.111  2.7423 -0.1957  1.9984
18379THY    CA149931   5.005   2.017   6.193  0.1013 -0.3578 -0.0919
18379THY    CA249932   4.869   2.055   6.204 -0.2099 -0.0149 -0.3918
18379THY    CP149933   4.810   2.148   6.103 -0.6397 -0.0754 -0.3378
18379THY    HP149934   4.888   2.171   6.029  0.7739  0.8005 -2.1310
18379THY    CP249935   4.782   2.279   6.170 -0.2602 -0.4499 -0.1999
18379THY    HP249936   4.875   2.310   6.219 -0.5954  1.3911 -1.9238
18379THY    HP349937   4.704   2.278   6.247  0.4919  0.3204 -0.7392
18379THY    HP449938   4.750   2.351   6.094  0.3644 -1.0743 -0.5634
18379THY    CP349939   4.690   2.093   6.022  0.7457 -0.1174 -0.3677
18379THY    HP549940   4.598   2.102   6.080  0.8819  0.1768 -0.8650
18379THY    HP649941   4.702   1.986   6.001  3.1228  2.3447 -0.6893
18379THY    HP749942   4.683   2.159   5.934 -2.5740 -0.8671 -1.5455
18379THY    CA349943   4.781   1.975   6.275  0.2428 -0.0374 -0.1737
18379THY    HA349944   4.674   1.995   6.272  0.4952 -1.5796  1.1782
18379THY    CA449945   4.832   1.872   6.352  0.2396  0.0370  0.0247
18379THY    HA449946   4.758   1.817   6.410 -0.4191  1.1456  1.9712
18379THY    CA549947   4.968   1.842   6.345 -0.5757  0.3455  0.4393
18379THY    CM149948   5.030   1.733   6.413 -0.9916 -0.6013 -0.0004
18379THY    HM149949   5.112   1.767   6.477 -0.0132 -0.5480 -2.2351
18379THY    HM249950   5.070   1.667   6.334  0.7872  1.3675 -1.4217
18379THY    HM349951   4.961   1.675   6.475  0.2515  0.0680 -0.8239
18379THY    CA649952   5.057   1.913   6.267 -0.3321  0.6297  0.5382
18379THY    HA649953   5.164   1.895   6.260 -0.3812  0.7558  0.1907
18380THY      O49954   0.474   1.695   4.193 -0.1983 -0.2862 -0.3403
18380THY     HO49955   0.550   1.681   4.252 -0.0349 -0.5895 -0.7379
18380THY    CA149956   0.491   1.813   4.131  0.2660  0.4397  0.2801
18380THY    CA249957   0.404   1.865   4.028 -0.3800 -0.2864 -0.3030
18380THY    CP149958   0.274   1.791   4.001 -0.1454  0.0571 -0.5798
18380THY    HP149959   0.261   1.718   4.081  1.0928 -0.9107 -1.9157
18380THY    CP249960   0.289   1.715   3.872  0.0862 -0.8857 -0.3269
18380THY    HP249961   0.384   1.660   3.880  1.0955  0.5247  1.4998
18380THY    HP349962   0.295   1.790   3.792 -0.5493  0.3989  1.1605
18380THY    HP449963   0.205   1.648   3.851 -1.3117 -0.8591  1.3508
18380THY    CP349964   0.151   1.889   4.002 -0.6504 -0.1108 -0.2105
18380THY    HP549965   0.056   1.835   4.009 -1.5144  3.0690  1.4935
18380THY    HP649966   0.144   1.940   3.905  0.4180 -0.0221  0.1360
18380THY    HP749967   0.154   1.966   4.080 -1.0254 -0.7644  0.4760
18380THY    CA349968   0.446   1.980   3.961 -0.8803 -0.4403  0.4048
18380THY    HA349969   0.396   2.021   3.873  0.1331 -0.5808  1.3607
18380THY    CA449970   0.564   2.051   4.002  0.0240  0.5004 -0.0578
18380THY    HA449971   0.585   2.145   3.952 -1.7460 -1.2720 -0.5314
18380THY    CA549972   0.639   2.006   4.113  0.0212 -0.9937  0.6797
18380THY    CM149973   0.748   2.095   4.157  0.3364 -0.1004 -0.2682
18380THY    HM149974   0.795   2.154   4.078 -0.8428  0.6330  1.7682
18380THY    HM249975   0.826   2.038   4.209  1.2864  0.0208  1.1066
18380THY    HM349976   0.714   2.172   4.227  2.3228 -0.3868  0.9053
18380THY    CA649977   0.602   1.882   4.178 -0.5300  0.0144 -0.0237
18380THY    HA649978   0.650   1.854   4.271 -1.6180  0.6505  0.1649
18381THY      O49979   4.067   1.668   5.867  0.0073 -0.5351 -1.0337
18381THY     HO49980   4.008   1.595   5.842  2.2037 -0.2273 -3.0724
18381THY    CA149981   4.064   1.659   6.006 -0.0437 -0.7911 -0.3195
18381THY    CA249982   4.178   1.694   6.081  0.7860  0.6891 -0.0353
18381THY    CP149983   4.313   1.720   6.016 -0.0408 -0.8030 -0.6063
18381THY    HP149984   4.291   1.741   5.911  1.5796 -0.5165  3.5941
18381THY    CP249985   4.393   1.589   6.019 -0.1987  0.6364 -0.0895
18381THY    HP249986   4.407   1.555   6.123 -0.7707  0.9327  0.5473
18381THY    HP349987   4.486   1.606   5.966  0.1697  1.8305  1.9718
18381THY    HP449988   4.340   1.510   5.964 -0.8592 -3.0966  2.7103
18381THY    CP349989   4.385   1.855   6.063  1.1487  0.5555  0.4337
18381THY    HP549990   4.312   1.935   6.051  1.1227  1.3599  0.5332
18381THY    HP649991   4.464   1.879   5.991  2.6598  1.6913 -0.8743
18381THY    HP749992   4.422   1.841   6.165 -0.4057  1.0356 -0.4311
18381THY    CA349993   4.162   1.688   6.216  0.2550 -0.5495  0.1103
18381THY    HA349994   4.249   1.707   6.279 -0.1572  0.7834 -2.0559
18381THY    CA449995   4.040   1.651   6.271  0.1021 -0.1591  0.2282
18381THY    HA449996   4.036   1.631   6.378  1.1187 -0.5225 -2.2303
18381THY    CA549997   3.929   1.631   6.193 -0.0720  0.9525  0.9608
18381THY    CM149998   3.795   1.597   6.252  0.4424 -0.0993 -0.1199
18381THY    HM149999   3.781   1.657   6.343 -1.2015  0.7210 -1.6534
18381THY    HM250000   3.795   1.492   6.283 -2.9083  3.7032  0.7612
18381THY    HM350001   3.718   1.627   6.181 -0.3273  1.2859  1.3501
18381THY    CA650002   3.935   1.647   6.055 -0.3646 -0.4727 -0.0979
18381THY    HA650003   3.849   1.641   5.989  0.6637 -2.2304  2.5532
18382THY      O50004   6.803   6.370   6.502 -0.1106  0.1009 -0.7697
18382THY     HO50005   6.884   6.328   6.467 -0.2182 -2.1239  0.7202
18382THY    CA150006   6.704   6.274   6.522  0.0741  0.2128  0.2260
18382THY    CA250007   6.571   6.309   6.540 -0.3116  0.1593 -0.2526
18382THY    CP150008   6.543   6.461   6.530  0.6378 -0.0615  0.1395
18382THY    HP150009   6.611   6.508   6.458 -0.7709 -2.3246 -1.1219
18382THY    CP250010   6.554   6.523   6.665 -0.7268 -0.0064 -0.4387
18382THY    HP250011   6.662   6.523   6.680 -0.4344 -1.8042  0.8664
18382THY    HP350012   6.512   6.467   6.750 -2.1370  0.5542  1.3734
18382THY    HP450013   6.517   6.625   6.655  0.5125 -0.6703 -0.0417
18382THY    CP350014   6.402   6.488   6.470  0.3077 -1.1721  0.4198
18382THY    HP550015   6.388   6.595   6.451  0.7055 -0.4209  0.6168
18382THY    HP650016   6.331   6.473   6.552  0.4272 -1.3878 -1.4660
18382THY    HP750017   6.377   6.416   6.392 -0.6535 -1.7079  1.3076
18382THY    CA350018   6.469   6.212   6.532  0.8795  0.2450 -0.3375
18382THY    HA350019   6.363   6.236   6.534  1.6178  1.1142  3.5094
18382THY    CA450020   6.507   6.079   6.522  0.6548  0.1885  0.4516
18382THY    HA450021   6.425   6.008   6.515  0.5349  2.2513  0.3192
18382THY    CA550022   6.638   6.037   6.505  0.2311  1.0508  0.2382
18382THY    CM150023   6.669   5.896   6.466  0.9753 -0.1176 -0.4646
18382THY    HM150024   6.588   5.824   6.455 -0.2939  2.0607  0.5190
18382THY    HM250025   6.718   5.834   6.542  1.8297 -1.2954 -1.2702
18382THY    HM350026   6.734   5.893   6.378  1.6863  0.3088  1.0244
18382THY    CA650027   6.739   6.139   6.497 -0.5355  0.0556 -0.6535
18382THY    HA650028   6.835   6.112   6.454 -0.2277  0.6349 -0.4809
18383THY      O50029   5.474   1.639   3.198  0.0021  0.3977  1.0537
18383THY     HO50030   5.441   1.571   3.136 -0.0112  0.3055  1.1450
18383THY    CA150031   5.588   1.587   3.240  0.1529  0.2419  0.3780
18383THY    CA250032   5.638   1.628   3.366  0.3117 -0.4459  0.1914
18383THY    CP150033   5.552   1.725   3.453 -0.1629  0.4099  0.2530
18383THY    HP150034   5.501   1.797   3.388  2.7137 -0.8787  1.2844
18383THY    CP250035   5.628   1.827   3.543  0.1172  0.0261 -0.1556
18383THY    HP250036   5.695   1.795   3.623 -0.7248  0.4649 -0.8685
18383THY    HP350037   5.553   1.880   3.603 -0.5526  0.2717 -1.3399
18383THY    HP450038   5.673   1.906   3.482 -0.3630  0.2089  0.2698
18383THY    CP350039   5.459   1.642   3.542 -0.1456  0.1625  0.4129
18383THY    HP550040   5.359   1.636   3.498 -0.0198 -0.1996  0.9190
18383THY    HP650041   5.457   1.693   3.639  3.1703 -0.4336  1.9383
18383THY    HP750042   5.482   1.534   3.546 -2.6705  2.7944 -0.1521
18383THY    CA350043   5.757   1.573   3.413 -0.6601  0.4722  0.2431
18383THY    HA350044   5.791   1.600   3.512 -2.3186  0.9846  0.5775
18383THY    CA450045   5.831   1.495   3.336  0.0301  0.4116  0.1575
18383THY    HA450046   5.930   1.458   3.359 -0.9390 -0.3162 -3.2012
18383THY    CA550047   5.789   1.464   3.204 -0.3638  0.1656  0.3999
18383THY    CM150048   5.879   1.387   3.111  0.0421  0.1246 -0.2713
18383THY    HM150049   5.986   1.391   3.135  0.3643 -1.1047 -1.0856
18383THY    HM250050   5.867   1.430   3.011 -1.6099 -0.2012 -1.4071
18383THY    HM350051   5.851   1.283   3.095  2.5745 -0.0635 -0.9861
18383THY    CA650052   5.669   1.509   3.155  0.1247  0.3908  0.4114
18383THY    HA650053   5.644   1.486   3.052 -0.6009  1.0094 -1.9400
18384THY      O50054   6.783   7.878   5.819 -0.0363  0.7996  0.3877
18384THY     HO50055   6.857   7.921   5.864 -0.2485  0.5920  0.9953
18384THY    CA150056   6.664   7.928   5.882 -0.0691  0.0219  0.3761
18384THY    CA250057   6.538   7.938   5.820 -0.4931 -0.0953  0.1031
18384THY    CP150058   6.524   7.897   5.671  0.8204 -0.6797  0.2282
18384THY    HP150059   6.599   7.821   5.648 -0.0913  0.4949 -1.0916
18384THY    CP250060   6.533   8.027   5.584 -0.2183  0.1342  0.3697
18384THY    HP250061   6.515   8.000   5.479  0.5063  0.1041 -0.0442
18384THY    HP350062   6.637   8.061   5.594 -0.0318 -1.3849  0.3047
18384THY    HP450063   6.459   8.097   5.624 -1.4491 -1.2107 -0.1190
18384THY    CP350064   6.395   7.815   5.639 -0.7532  0.4788 -1.2061
18384THY    HP550065   6.396   7.793   5.532 -0.4872  0.5800 -1.7209
18384THY    HP650066   6.301   7.864   5.665 -1.5838 -0.6739 -2.1208
18384THY    HP750067   6.404   7.723   5.698 -1.4069 -0.2636 -1.7576
18384THY    CA350068   6.426   7.993   5.886  0.2554  0.1100  0.5571
18384THY    HA350069   6.332   8.018   5.838  0.5434  0.2419  2.0192
18384THY    CA450070   6.448   8.047   6.011 -0.3246 -0.0350 -0.8521
18384THY    HA450071   6.370   8.096   6.068  0.3761  0.9373 -0.8445
18384THY    CA550072   6.577   8.031   6.076  0.4100 -0.3261  0.2190
18384THY    CM150073   6.595   8.090   6.215  0.4662 -0.2586 -0.3647
18384THY    HM150074   6.521   8.051   6.286  1.6407 -0.0632 -2.3504
18384THY    HM250075   6.587   8.199   6.212  0.1137 -1.3905 -0.4088
18384THY    HM350076   6.685   8.053   6.266  0.2355  1.8488  1.7436
18384THY    CA650077   6.684   7.972   6.013  0.4607 -0.6322 -0.4842
18384THY    HA650078   6.778   7.969   6.067 -0.7116  1.4258 -2.4416
18385THY      O50079   3.749   7.035   3.479  0.4251 -0.9579  0.3167
18385THY     HO50080   3.693   7.016   3.402 -0.9893  0.1172 -0.0848
18385THY    CA150081   3.757   6.918   3.537 -0.2749 -0.4154 -0.0315
18385THY    CA250082   3.818   6.908   3.668  0.1717  0.0343 -0.2467
18385THY    CP150083   3.883   7.034   3.725  0.3853  0.5599  0.0727
18385THY    HP150084   3.906   7.108   3.647 -2.0949  0.1993  0.5277
18385THY    CP250085   4.012   7.009   3.802 -0.8936  0.4128  0.0106
18385THY    HP250086   4.050   7.109   3.822  2.2015 -1.7065 -0.6082
18385THY    HP350087   4.088   6.959   3.741 -0.7378  0.1138  0.6021
18385THY    HP450088   3.994   6.947   3.891  0.5364  0.2194 -0.7145
18385THY    CP350089   3.778   7.097   3.810  0.5704  0.6132  1.0041
18385THY    HP550090   3.798   7.190   3.864  1.5009  1.9308  0.0827
18385THY    HP650091   3.733   7.024   3.878 -1.8078 -3.7003 -1.9927
18385THY    HP750092   3.690   7.124   3.751  0.9875 -0.8461 -0.6453
18385THY    CA350093   3.832   6.774   3.722 -0.7090  0.0769 -0.4363
18385THY    HA350094   3.882   6.768   3.818 -0.7482  0.3706  2.5553
18385THY    CA450095   3.766   6.665   3.659  0.1568  0.3897 -1.1732
18385THY    HA450096   3.766   6.564   3.699  0.0885  1.9218 -0.5893
18385THY    CA550097   3.705   6.689   3.539 -0.8843 -0.0454 -0.5003
18385THY    CM150098   3.649   6.569   3.475  0.3120  0.4028 -0.5019
18385THY    HM150099   3.550   6.553   3.519 -0.2838 -1.0998 -1.1862
18385THY    HM250100   3.709   6.478   3.490  0.5815 -1.9724 -0.7848
18385THY    HM350101   3.635   6.587   3.367 -0.9786  0.6374  0.0024
18385THY    CA650102   3.700   6.812   3.479 -0.0895  0.2157 -0.2143
18385THY    HA650103   3.656   6.813   3.379 -0.3471  0.2945 -1.6613
18386THY      O50104   6.549   2.928   5.241  0.2216  0.1609 -0.0217
18386THY     HO50105   6.602   2.852   5.213  0.5682 -2.8043  1.1861
18386THY    CA150106   6.470   2.954   5.137  0.4164 -0.3915  0.6458
18386THY    CA250107   6.474   3.079   5.075 -0.0712  0.7478 -0.4155
18386THY    CP150108   6.561   3.186   5.141  0.1067 -0.3613 -0.1039
18386THY    HP150109   6.632   3.143   5.213  0.3906  1.9506  3.7652
18386THY    CP250110   6.471   3.287   5.216  0.3659  0.0707 -0.7421
18386THY    HP250111   6.413   3.246   5.299  0.4037  1.9520  2.5787
18386THY    HP350112   6.401   3.342   5.151 -1.9374  2.0053 -1.2561
18386THY    HP450113   6.539   3.358   5.265 -0.0425 -1.7937  1.0536
18386THY    CP350114   6.640   3.266   5.035 -0.3033  0.1617  0.1678
18386THY    HP550115   6.734   3.292   5.084 -0.3159  1.2519 -1.6519
18386THY    HP650116   6.593   3.358   4.999 -1.1707 -0.3865 -0.4696
18386THY    HP750117   6.661   3.212   4.942 -1.2715  0.0930 -0.1102
18386THY    CA350118   6.395   3.107   4.963 -0.2406 -0.3227  0.4112
18386THY    HA350119   6.385   3.210   4.929 -0.4186  0.2560  0.5906
18386THY    CA450120   6.314   3.004   4.918 -0.3956 -0.2708  0.5820
18386THY    HA450121   6.242   3.012   4.837 -2.1575  0.9291 -1.8806
18386THY    CA550122   6.309   2.879   4.985  0.5930  0.3391 -0.2170
18386THY    CM150123   6.234   2.763   4.912  0.4674 -0.4787 -0.2025
18386THY    HM150124   6.238   2.771   4.803 -0.8013 -0.4574  1.4211
18386THY    HM250125   6.128   2.755   4.941  0.0611 -1.8269  0.0352
18386THY    HM350126   6.283   2.669   4.938 -0.4256  1.2286 -0.2473
18386THY    CA650127   6.379   2.856   5.097  0.0718  0.1665  0.7217
18386THY    HA650128   6.371   2.755   5.138 -0.1348 -0.5440  0.4449
18387THY      O50129   1.121   0.769   3.956  0.6014 -0.5624  0.3185
18387THY     HO50130   1.121   0.702   3.886  2.4779 -0.2882 -0.0041
18387THY    CA150131   1.006   0.749   4.026  0.0209  0.7687  0.0931
18387THY    CA250132   0.986   0.811   4.151 -0.5235  0.2777  0.8497
18387THY    CP150133   1.101   0.908   4.200 -0.2083 -0.0638 -0.3650
18387THY    HP150134   1.161   0.961   4.125 -0.9419  0.7291  1.7008
18387THY    CP250135   1.203   0.827   4.290 -0.4808 -0.0582 -0.8659
18387THY    HP250136   1.298   0.875   4.318 -1.6597  0.3041  1.3546
18387THY    HP350137   1.242   0.743   4.229  0.1343  2.0277 -2.1673
18387THY    HP450138   1.150   0.767   4.365 -1.4899 -1.1778 -1.4161
18387THY    CP350139   1.050   1.016   4.290  0.1071 -0.0882 -0.5523
18387THY    HP550140   1.022   0.982   4.390  0.6354 -0.0732 -0.9656
18387THY    HP650141   0.976   1.079   4.240  0.8617  0.8271  1.1270
18387THY    HP750142   1.129   1.089   4.312  0.2513 -0.6007 -0.5439
18387THY    CA350143   0.865   0.785   4.221  0.0584 -0.4761 -0.1468
18387THY    HA350144   0.852   0.834   4.317  1.6879  0.7256 -1.9077
18387THY    CA450145   0.776   0.688   4.166  0.1134  0.1955  0.1556
18387THY    HA450146   0.689   0.658   4.224  0.6365  0.5621 -0.7032
18387THY    CA550147   0.793   0.642   4.034 -0.3686  0.3676 -0.5445
18387THY    CM150148   0.694   0.543   3.978  0.2295  0.2147 -0.2653
18387THY    HM150149   0.704   0.532   3.869 -0.5922 -0.1444  2.0113
18387THY    HM250150   0.593   0.575   4.007 -0.6432 -1.3315 -1.4880
18387THY    HM350151   0.701   0.444   4.023 -1.0560  0.0001 -0.4802
18387THY    CA650152   0.908   0.672   3.961  0.1612 -0.5542 -0.2170
18387THY    HA650153   0.936   0.617   3.872 -1.1906 -0.4078 -1.2002
18388THY      O50154   1.762   8.600   3.351 -0.2020  0.3421 -0.1564
18388THY     HO50155   1.834   8.570   3.409 -0.1865  1.7949  2.4245
18388THY    CA150156   1.659   8.562   3.431 -0.0831  0.2455  0.1812
18388THY    CA250157   1.548   8.517   3.368  0.1885 -0.1073  0.3712
18388THY    CP150158   1.544   8.495   3.214 -0.5555  0.4434 -0.0377
18388THY    HP150159   1.622   8.554   3.165 -0.3038  2.1102  1.0892
18388THY    CP250160   1.414   8.555   3.147  0.6257 -0.1490  0.7020
18388THY    HP250161   1.318   8.536   3.197  0.2175 -1.3867 -0.6954
18388THY    HP350162   1.406   8.518   3.044 -1.0818  0.0495  0.4487
18388THY    HP450163   1.414   8.665   3.138 -2.0380 -1.8030  0.6441
18388THY    CP350164   1.584   8.357   3.170  0.4167 -0.7631  0.5544
18388THY    HP550165   1.503   8.283   3.178  0.3856 -0.3933  0.6265
18388THY    HP650166   1.660   8.303   3.228 -1.4923 -2.1365 -4.1857
18388THY    HP750167   1.613   8.364   3.065 -1.3495 -1.2526  0.9101
18388THY    CA350168   1.447   8.471   3.451 -0.3101 -0.6274  1.2220
18388THY    HA350169   1.353   8.439   3.408  0.4534 -0.1922 -1.9046
18388THY    CA450170   1.457   8.489   3.593 -0.3873  0.2239 -0.0745
18388THY    HA450171   1.368   8.458   3.647 -1.6632 -2.3450 -1.2056
18388THY    CA550172   1.567   8.551   3.653  0.9843 -0.2360  0.4034
18388THY    CM150173   1.565   8.559   3.806  0.5728 -0.5643 -0.0641
18388THY    HM150174   1.520   8.467   3.845 -1.8660 -2.2333  0.3122
18388THY    HM250175   1.509   8.645   3.843  1.6740 -0.0097  0.4407
18388THY    HM350176   1.668   8.561   3.843  0.0065  1.4274 -2.2864
18388THY    CA650177   1.680   8.579   3.571  0.2465  0.5217  0.1769
18388THY    HA650178   1.765   8.634   3.611 -0.1347 -0.6872  1.7125
18389THY      O50179   1.645   7.145   3.152 -0.5771 -0.7415 -0.2911
18389THY     HO50180   1.712   7.215   3.164 -1.2422 -3.4225  0.9455
18389THY    CA150181   1.526   7.199   3.193  0.6198 -0.5087  0.0723
18389THY    CA250182   1.404   7.125   3.191  0.0785  0.8936  0.6383
18389THY    CP150183   1.400   6.986   3.131 -0.3767 -0.2057  0.0543
18389THY    HP150184   1.498   6.939   3.125 -0.0203  3.0831  0.1645
18389THY    CP250185   1.337   6.996   2.990 -0.2843  0.2628  0.0399
18389THY    HP250186   1.344   6.897   2.943 -1.9063 -0.8269  0.3981
18389THY    HP350187   1.400   7.056   2.923 -1.0527 -0.0247  0.5491
18389THY    HP450188   1.236   7.040   2.993 -0.6672  0.2847 -0.8177
18389THY    CP350189   1.301   6.889   3.210 -0.0087 -0.4938  0.5297
18389THY    HP550190   1.309   6.790   3.165 -1.2443  0.6683 -0.1306
18389THY    HP650191   1.201   6.927   3.186  0.9054 -0.7664  2.9610
18389THY    HP750192   1.317   6.887   3.319  2.6281 -0.8143  0.1822
18389THY    CA350193   1.284   7.186   3.230 -0.3486 -0.2570  0.1725
18389THY    HA350194   1.186   7.140   3.230 -1.4474 -0.2518  2.3427
18389THY    CA450195   1.295   7.314   3.275  0.1191  0.7517  0.2346
18389THY    HA450196   1.198   7.361   3.292 -0.6699 -1.4969 -0.4466
18389THY    CA550197   1.418   7.383   3.289  0.0455  0.6236  0.5422
18389THY    CM150198   1.424   7.528   3.331  0.2769 -0.1451  0.1444
18389THY    HM150199   1.483   7.587   3.260  1.1948  0.1275 -0.4286
18389THY    HM250200   1.466   7.540   3.432 -3.3903  1.7541 -1.5432
18389THY    HM350201   1.328   7.580   3.339 -1.0503 -1.3140 -2.0136
18389THY    CA650202   1.538   7.325   3.248  0.0807 -0.5008 -0.7239
18389THY    HA650203   1.635   7.374   3.253 -0.4563  1.5787  0.2636
18390THY      O50204   2.318   5.052   2.317  0.1540 -0.1766 -0.7534
18390THY     HO50205   2.238   5.044   2.263 -1.6527  2.0664  0.6863
18390THY    CA150206   2.345   5.184   2.317 -0.1630 -0.1027 -0.1556
18390THY    CA250207   2.457   5.229   2.386  0.0783 -0.0455 -1.0091
18390THY    CP150208   2.555   5.123   2.444  0.1527  0.8866  0.2032
18390THY    HP150209   2.528   5.028   2.397 -2.1657 -0.8795  1.6323
18390THY    CP250210   2.545   5.121   2.596 -0.4472 -1.0536 -0.1917
18390THY    HP250211   2.584   5.026   2.633  0.1887  0.6639  0.6848
18390THY    HP350212   2.447   5.126   2.643 -0.6986 -1.3101 -2.1647
18390THY    HP450213   2.601   5.207   2.636 -0.7870 -1.4308  0.2097
18390THY    CP350214   2.703   5.155   2.412  0.4598  0.3807  0.5681
18390THY    HP550215   2.721   5.190   2.310  0.1087 -0.5071 -1.6479
18390THY    HP650216   2.766   5.066   2.419  1.6967  1.0492  1.4730
18390THY    HP750217   2.746   5.224   2.485 -0.8009  0.5407  1.2253
18390THY    CA350218   2.471   5.361   2.406  0.1219  0.1079  0.6754
18390THY    HA350219   2.553   5.405   2.463 -0.3426 -0.0657  1.7947
18390THY    CA450220   2.378   5.449   2.343  0.2055 -0.8728  0.6985
18390THY    HA450221   2.391   5.556   2.360  1.2414 -3.4794  1.0538
18390THY    CA550222   2.268   5.407   2.275  0.3669 -0.6068  0.7970
18390THY    CM150223   2.184   5.499   2.202  0.3073 -0.7848 -0.0388
18390THY    HM150224   2.228   5.599   2.209 -0.1949 -0.6969  0.1796
18390THY    HM250225   2.099   5.518   2.267  1.1338  0.1372  0.5902
18390THY    HM350226   2.156   5.466   2.101  0.6819 -1.1312  0.6832
18390THY    CA650227   2.254   5.268   2.260 -0.5091  0.3541 -0.7244
18390THY    HA650228   2.170   5.223   2.208 -0.1634  0.0523 -1.0285
18391THY      O50229   2.560   9.104   6.106  0.0685 -0.5197 -0.0092
18391THY     HO50230   2.464   9.118   6.098  0.0916  0.8995  1.2140
18391THY    CA150231   2.580   8.986   6.151 -0.1476 -0.4084 -0.2585
18391THY    CA250232   2.692   8.954   6.220  0.1390 -0.0673  0.4575
18391THY    CP150233   2.798   9.067   6.249 -1.1957 -0.4572 -0.2454
18391THY    HP150234   2.804   9.140   6.168 -0.7358  0.8906  1.2714
18391THY    CP250235   2.946   9.022   6.254  0.0599 -0.8690 -0.2124
18391THY    HP250236   2.977   8.960   6.169  2.3987 -1.4757  1.6363
18391THY    HP350237   2.979   8.968   6.344  2.0907 -0.7136  1.1760
18391THY    HP450238   3.009   9.111   6.259 -0.1206 -1.1517 -0.0687
18391THY    CP350239   2.763   9.144   6.376 -0.3134 -0.0334  0.4572
18391THY    HP550240   2.665   9.192   6.365  0.4699 -0.5748  2.0100
18391THY    HP650241   2.842   9.220   6.380  0.1888 -0.3054 -0.0395
18391THY    HP750242   2.773   9.088   6.469  0.5692 -0.6057 -0.3740
18391THY    CA350243   2.717   8.824   6.265 -0.0287 -0.0304 -0.2031
18391THY    HA350244   2.806   8.812   6.326  0.9909 -1.4217 -0.0143
18391THY    CA450245   2.626   8.727   6.240  0.0112  0.2515  0.3072
18391THY    HA450246   2.640   8.631   6.288  1.0927 -3.1122 -1.3680
18391THY    CA550247   2.516   8.753   6.151  0.0797 -0.3120  0.4278
18391THY    CM150248   2.424   8.642   6.117 -0.2900 -0.1404  0.0254
18391THY    HM150249   2.439   8.623   6.010 -0.4462 -0.3138  0.8037
18391THY    HM250250   2.319   8.671   6.127  0.0855  0.9610  1.0863
18391THY    HM350251   2.455   8.561   6.183 -0.3046 -1.6952 -1.3118
18391THY    CA650252   2.490   8.886   6.119 -0.5391  0.7489 -0.2258
18391THY    HA650253   2.401   8.910   6.062  0.6811 -2.1924 -2.1861
18392THY      O50254   1.719   7.700   2.655  0.5419 -0.3750  0.1560
18392THY     HO50255   1.747   7.788   2.684 -0.1397  1.6617 -0.2458
18392THY    CA150256   1.594   7.722   2.600 -0.0196 -0.2976  0.5004
18392THY    CA250257   1.512   7.618   2.558 -0.5221 -0.8217 -0.5270
18392THY    CP150258   1.561   7.472   2.572 -1.0798  0.2435  0.1164
18392THY    HP150259   1.670   7.471   2.566 -1.0796 -0.4716 -2.5488
18392THY    CP250260   1.513   7.373   2.460  0.5981  0.2176  0.0674
18392THY    HP250261   1.519   7.421   2.362  0.4810  0.4860  0.6333
18392THY    HP350262   1.409   7.343   2.479  0.1458 -1.6701  0.3110
18392THY    HP450263   1.576   7.285   2.442 -0.1740 -1.1437 -0.2342
18392THY    CP350264   1.517   7.424   2.713  0.1084  0.0319 -0.6884
18392THY    HP550265   1.535   7.318   2.730  0.2425 -0.7395 -0.7959
18392THY    HP650266   1.407   7.427   2.713  0.0547  3.0263 -0.0648
18392THY    HP750267   1.566   7.481   2.792 -2.1434  1.5234 -0.7017
18392THY    CA350268   1.388   7.651   2.497 -0.9827 -0.7134  0.2167
18392THY    HA350269   1.320   7.575   2.460  0.5639 -0.3948 -1.3874
18392THY    CA450270   1.337   7.777   2.514  0.1598  0.0027  0.3498
18392THY    HA450271   1.238   7.798   2.476  0.9187 -2.5938 -0.2927
18392THY    CA550272   1.414   7.878   2.562  0.1280 -0.7381  0.4301
18392THY    CM150273   1.361   8.013   2.565  0.1987 -0.0395 -0.4009
18392THY    HM150274   1.371   8.062   2.467  0.4577  0.5297  0.7080
18392THY    HM250275   1.419   8.083   2.626  0.0691 -0.2739 -0.0851
18392THY    HM350276   1.260   8.017   2.607  0.0722 -0.0124 -2.5961
18392THY    CA650277   1.549   7.857   2.592 -0.9833  0.2284  0.6142
18392THY    HA650278   1.612   7.943   2.612  0.7736  1.6292 -0.9153
18393THY      O50279   4.383   0.569   6.450  0.2250 -0.7435 -0.3683
18393THY     HO50280   4.436   0.496   6.488  1.2454  0.7764  1.0953
18393THY    CA150281   4.265   0.571   6.510  0.1580 -0.1150 -0.3257
18393THY    CA250282   4.180   0.682   6.498 -0.3464  0.0711  1.1880
18393THY    CP150283   4.216   0.794   6.401 -0.3378 -0.4033 -0.9395
18393THY    HP150284   4.305   0.766   6.342 -0.1212 -1.3321  1.4798
18393THY    CP250285   4.259   0.923   6.469 -0.2536 -0.6675 -0.0620
18393THY    HP250286   4.366   0.922   6.490 -0.3908  0.4278  1.8309
18393THY    HP350287   4.194   0.949   6.554 -1.3674 -1.6823  0.6030
18393THY    HP450288   4.252   1.007   6.399 -0.4598 -1.4892 -0.7568
18393THY    CP350289   4.100   0.823   6.313  0.3384  1.1934  0.3343
18393THY    HP550290   4.018   0.869   6.371 -0.2630  0.6085  0.0115
18393THY    HP650291   4.068   0.739   6.250 -0.9303  0.5204  1.2820
18393THY    HP750292   4.126   0.883   6.225 -5.1821 -1.3295 -0.3707
18393THY    CA350293   4.062   0.691   6.572  0.9398  0.2682  0.1801
18393THY    HA350294   4.004   0.783   6.574  0.3786  0.2126 -0.1652
18393THY    CA450295   4.037   0.596   6.676  0.0101  0.1017 -0.1935
18393THY    HA450296   3.952   0.593   6.743  1.0432  1.4237 -1.6414
18393THY    CA550297   4.130   0.486   6.685  0.5913 -0.8433 -0.5079
18393THY    CM150298   4.096   0.388   6.788  0.1058 -0.1342 -0.4230
18393THY    HM150299   4.021   0.428   6.857  1.3698  0.2578  1.4231
18393THY    HM250300   4.174   0.331   6.841 -2.6403  2.4077 -2.1212
18393THY    HM350301   4.049   0.307   6.731 -0.4683  0.6699 -0.6664
18393THY    CA650302   4.245   0.476   6.611 -0.3016  0.3619 -0.4537
18393THY    HA650303   4.314   0.394   6.626 -0.0033  2.4485  0.1166
18394THY      O50304   6.122   6.704   3.228  0.7667  0.5454 -0.4053
18394THY     HO50305   6.096   6.699   3.321  0.0750  0.3762 -0.0801
18394THY    CA150306   6.013   6.752   3.169  0.4582 -0.5539  0.0681
18394THY    CA250307   5.977   6.705   3.038 -0.5867 -0.9646 -1.0758
18394THY    CP150308   6.086   6.640   2.948  0.0199 -0.1175  0.6425
18394THY    HP150309   6.179   6.692   2.973  1.7403 -0.4941 -2.0990
18394THY    CP250310   6.059   6.664   2.802 -0.4334  0.0650  0.6342
18394THY    HP250311   6.132   6.610   2.741 -0.7455  0.0995  0.1612
18394THY    HP350312   6.055   6.771   2.779  1.8435  0.1147  0.7720
18394THY    HP450313   5.965   6.618   2.769  0.9761  0.0799 -2.5188
18394THY    CP350314   6.102   6.495   2.986 -0.7342 -0.0359  1.0808
18394THY    HP550315   6.002   6.450   2.996 -1.7743  2.6480  3.6943
18394THY    HP650316   6.172   6.482   3.070 -0.7162  0.4871  3.9549
18394THY    HP750317   6.151   6.439   2.905  2.1370  1.6994  0.8789
18394THY    CA350318   5.843   6.729   3.000  0.0179 -0.2616  0.9181
18394THY    HA350319   5.791   6.700   2.910 -2.2493  1.2918 -0.1088
18394THY    CA450320   5.755   6.805   3.084  0.1528 -0.3459  0.1107
18394THY    HA450321   5.652   6.826   3.057 -0.8696  1.6612 -1.8757
18394THY    CA550322   5.798   6.865   3.201  0.4285  0.2958  0.4637
18394THY    CM150323   5.696   6.941   3.291 -0.2187  0.0262 -0.6247
18394THY    HM150324   5.603   6.887   3.313 -0.3316  1.2062  0.0042
18394THY    HM250325   5.668   7.031   3.236  1.9893 -0.6375 -0.2806
18394THY    HM350326   5.735   6.982   3.385 -1.7293  0.7874 -0.8729
18394THY    CA650327   5.925   6.830   3.243  0.1533 -0.3003 -0.0757
18394THY    HA650328   5.953   6.861   3.343  2.5958 -0.6836 -0.8030
18395THY      O50329   7.538   8.372   3.014  0.3180  0.1293 -0.0985
18395THY     HO50330   7.446   8.397   2.995  0.7168 -0.7268  0.7488
18395THY    CA150331   7.556   8.361   3.149  0.2503  0.1159 -0.7953
18395THY    CA250332   7.680   8.325   3.206  0.1037 -0.0192  0.1320
18395THY    CP150333   7.789   8.268   3.118 -0.0697 -0.5395  0.4936
18395THY    HP150334   7.788   8.292   3.011  1.0866 -1.0949 -1.6926
18395THY    CP250335   7.800   8.106   3.138  0.0986  0.5425 -0.1452
18395THY    HP250336   7.882   8.074   3.072 -0.5603  0.2976 -1.3532
18395THY    HP350337   7.706   8.059   3.108  0.9754 -1.0677 -0.9367
18395THY    HP450338   7.823   8.065   3.237  0.4234  0.4895 -0.0955
18395THY    CP350339   7.930   8.316   3.169 -0.3471  0.2556  0.0196
18395THY    HP550340   7.924   8.424   3.187  0.2681  0.4302  0.0270
18395THY    HP650341   8.010   8.290   3.098 -0.4375  0.5162 -0.9747
18395THY    HP750342   7.964   8.265   3.259  1.4039 -0.8121 -0.7857
18395THY    CA350343   7.703   8.339   3.343  0.5081 -0.6642 -0.1062
18395THY    HA350344   7.794   8.319   3.398 -0.5715  1.6950  0.9698
18395THY    CA450345   7.592   8.378   3.417 -0.3037 -1.2477  0.4163
18395THY    HA450346   7.608   8.370   3.524  0.7441 -1.4220 -0.0504
18395THY    CA550347   7.480   8.431   3.363  0.3694  1.5271 -0.9259
18395THY    CM150348   7.375   8.487   3.451 -0.2398 -0.1508 -0.2908
18395THY    HM150349   7.289   8.513   3.389  0.9158 -0.5588  3.0621
18395THY    HM250350   7.395   8.579   3.506  1.8725  0.6652 -1.1691
18395THY    HM350351   7.343   8.412   3.524 -0.9789 -2.9215 -2.8587
18395THY    CA650352   7.458   8.418   3.231  0.4008 -0.4475 -0.9745
18395THY    HA650353   7.365   8.455   3.190 -1.0974  2.7384 -0.8714
18396THY      O50354   2.166   6.044   6.605  0.1888 -0.6394  0.0630
18396THY     HO50355   2.150   5.975   6.538 -2.3884  0.2883 -0.3700
18396THY    CA150356   2.162   6.156   6.541  0.4776 -0.3553 -0.3408
18396THY    CA250357   2.258   6.255   6.561  0.0807  0.4144 -0.1788
18396THY    CP150358   2.380   6.225   6.645  0.0768 -0.3775 -0.2491
18396THY    HP150359   2.396   6.119   6.666 -0.2505  0.8776 -0.0707
18396THY    CP250360   2.369   6.300   6.783 -0.6492  0.0373  0.0462
18396THY    HP250361   2.451   6.286   6.854 -0.7744 -0.1382 -1.7212
18396THY    HP350362   2.276   6.268   6.831 -0.2204  0.4702 -0.5868
18396THY    HP450363   2.370   6.408   6.765 -1.1515  3.8101  0.8243
18396THY    CP350364   2.504   6.274   6.564 -0.5844 -0.1711 -0.1364
18396THY    HP550365   2.589   6.233   6.619 -1.6945  2.4911  0.9347
18396THY    HP650366   2.522   6.382   6.571  0.2926  0.8914 -0.3406
18396THY    HP750367   2.503   6.232   6.463  0.3290 -0.3924  0.3451
18396THY    CA350368   2.233   6.383   6.501  0.1427 -0.5571  0.3476
18396THY    HA350369   2.306   6.463   6.502  1.3983 -0.3176 -0.7671
18396THY    CA450370   2.119   6.388   6.415 -0.0030  0.2679 -0.6551
18396THY    HA450371   2.084   6.482   6.373 -1.0253  1.3903 -0.5078
18396THY    CA550372   2.017   6.288   6.399 -0.6416 -0.4779  0.3008
18396THY    CM150373   1.895   6.297   6.311  0.0540 -0.0476  0.5538
18396THY    HM150374   1.809   6.285   6.378 -0.3906 -1.1323 -4.2541
18396THY    HM250375   1.885   6.212   6.243 -1.0337  0.5577  0.1895
18396THY    HM350376   1.881   6.394   6.262 -2.1496  0.7069  0.6712
18396THY    CA650377   2.050   6.164   6.458  0.4937 -0.2006  0.4270
18396THY    HA650378   1.978   6.083   6.451  1.8930 -1.0633 -0.7931
18397THY      O50379   1.628   1.463   5.038 -0.5123 -0.5110 -0.4382
18397THY     HO50380   1.662   1.435   5.125 -0.7560 -0.6462 -1.1761
18397THY    CA150381   1.741   1.484   4.965  0.0727 -0.3393  0.1203
18397THY    CA250382   1.746   1.493   4.828  0.9941  0.8678  0.0161
18397THY    CP150383   1.611   1.488   4.746 -0.2360  0.3509  0.0794
18397THY    HP150384   1.533   1.501   4.822 -1.2359 -1.0941  4.6753
18397THY    CP250385   1.593   1.356   4.667 -0.0724 -0.8745 -0.3009
18397THY    HP250386   1.649   1.370   4.574  0.0090 -1.2907 -2.8898
18397THY    HP350387   1.486   1.334   4.661  0.2507  1.2604 -3.1209
18397THY    HP450388   1.637   1.267   4.713 -2.5240  1.6720 -0.3672
18397THY    CP350389   1.595   1.614   4.652 -0.2581 -0.0193  0.3782
18397THY    HP550390   1.658   1.599   4.564  0.1000  0.3485 -0.3574
18397THY    HP650391   1.630   1.704   4.705 -1.0265  0.3999  0.4397
18397THY    HP750392   1.489   1.628   4.630 -0.0693 -0.3820  1.3006
18397THY    CA350393   1.870   1.502   4.760  0.9074  0.5045  0.3280
18397THY    HA350394   1.875   1.504   4.652 -1.0957  0.3814  0.1472
18397THY    CA450395   1.989   1.495   4.833 -0.6973  0.5777  0.8804
18397THY    HA450396   2.084   1.496   4.782  0.2102  1.9377 -2.6761
18397THY    CA550397   1.975   1.482   4.973  0.1466 -0.2264 -0.2511
18397THY    CM150398   2.097   1.454   5.050 -0.1065 -0.2857  0.5289
18397THY    HM150399   2.168   1.388   4.999 -1.1219 -1.8139  0.5839
18397THY    HM250400   2.088   1.405   5.149 -0.0346 -1.5271 -2.1932
18397THY    HM350401   2.144   1.551   5.067 -2.0867 -1.5316  1.7662
18397THY    CA650402   1.856   1.481   5.041  0.1635  0.1334  0.1417
18397THY    HA650403   1.840   1.475   5.148 -1.2806 -0.0644  0.2020
18398THY      O50404   9.406   0.240   6.065 -0.3881 -0.3851  0.4295
18398THY     HO50405   9.501   0.218   6.073 -0.9728  0.1375 -2.2469
18398THY    CA150406   9.397   0.368   6.085 -0.2500 -0.4165 -0.1988
18398THY    CA250407   9.376   0.450   5.984  0.1417 -0.2842 -0.0678
18398THY    CP150408   9.363   0.401   5.838  0.8495 -0.2204 -0.2268
18398THY    HP150409   9.339   0.294   5.837 -0.0717  1.7436 -0.0705
18398THY    CP250410   9.497   0.417   5.771  0.0528 -0.2570  0.0856
18398THY    HP250411   9.546   0.319   5.762  1.5185  0.9983  0.6642
18398THY    HP350412   9.570   0.471   5.832  0.3500 -0.8999  0.4174
18398THY    HP450413   9.479   0.470   5.677 -0.1417 -0.9326 -1.1327
18398THY    CP350414   9.250   0.463   5.759 -0.3187  0.2498  0.3359
18398THY    HP550415   9.234   0.405   5.667 -0.8396  0.9150 -0.6008
18398THY    HP650416   9.254   0.570   5.734  1.3425 -1.5876 -0.0914
18398THY    HP750417   9.154   0.454   5.812  0.0135  0.9752  0.9308
18398THY    CA350418   9.357   0.588   6.010  0.5287 -0.1205  0.6592
18398THY    HA350419   9.332   0.650   5.925  1.5086 -2.2858 -1.7482
18398THY    CA450420   9.356   0.637   6.142 -0.7751 -0.3190 -0.2044
18398THY    HA450421   9.344   0.743   6.161  1.7869  0.2150  0.0579
18398THY    CA550422   9.384   0.550   6.249 -0.3076  0.3530 -0.3771
18398THY    CM150423   9.405   0.599   6.386  0.2861 -0.3325 -0.0800
18398THY    HM150424   9.399   0.512   6.453 -0.4691 -1.2748 -0.7844
18398THY    HM250425   9.332   0.674   6.418  0.2698  2.2549 -1.1051
18398THY    HM350426   9.504   0.644   6.396  1.0636 -2.3106 -1.2178
18398THY    CA650427   9.400   0.417   6.223 -0.3583 -0.4764 -0.9080
18398THY    HA650428   9.421   0.347   6.303 -1.4768  0.0640 -0.6512
18399THY      O50429   5.748   5.178   6.103 -0.2289 -0.5285 -0.3031
18399THY     HO50430   5.695   5.254   6.074 -1.8775  1.9747 -0.4020
18399THY    CA150431   5.774   5.184   6.239 -0.0273 -0.1584 -0.5945
18399THY    CA250432   5.735   5.298   6.314 -1.2635  0.2487  0.5924
18399THY    CP150433   5.656   5.411   6.251  0.2545 -0.3309  0.7877
18399THY    HP150434   5.673   5.403   6.143 -3.3257 -1.0791  1.2898
18399THY    CP250435   5.692   5.558   6.292  0.2764  0.4917 -1.1175
18399THY    HP250436   5.694   5.571   6.401  1.3321  0.5429 -1.6512
18399THY    HP350437   5.634   5.631   6.235  0.2613  0.6471 -1.0079
18399THY    HP450438   5.791   5.580   6.252 -0.4488 -1.1998 -0.8069
18399THY    CP350439   5.504   5.376   6.269  0.3798 -0.4646  0.0796
18399THY    HP550440   5.491   5.271   6.241 -1.0642  2.2968 -0.5757
18399THY    HP650441   5.435   5.444   6.219  0.3574 -1.6590 -0.7895
18399THY    HP750442   5.485   5.366   6.376  1.0625 -0.3458 -0.0166
18399THY    CA350443   5.756   5.290   6.456  0.3242  0.3152  0.1237
18399THY    HA350444   5.728   5.375   6.517  0.5139 -2.1282  2.0514
18399THY    CA450445   5.818   5.178   6.512 -0.4976 -0.2522  0.7298
18399THY    HA450446   5.836   5.178   6.619  1.2566 -0.5288  0.9430
18399THY    CA550447   5.857   5.070   6.434 -0.4360 -0.3477  0.0635
18399THY    CM150448   5.927   4.946   6.496  0.3925 -0.3163 -1.1289
18399THY    HM150449   5.912   4.852   6.440  0.3297  3.3189 -3.4875
18399THY    HM250450   5.888   4.923   6.596  1.7600  0.2599 -0.9851
18399THY    HM350451   6.034   4.963   6.509  0.2297 -0.2247 -0.1534
18399THY    CA650452   5.836   5.075   6.296  0.3339 -0.2020 -0.5091
18399THY    HA650453   5.856   4.990   6.232 -0.5055 -1.2740  0.0632
18400THY      O50454   4.099   5.588   4.166  0.2136 -0.6318 -0.1306
18400THY     HO50455   4.129   5.677   4.190 -1.9740  0.9944  0.2479
18400THY    CA150456   4.118   5.568   4.032  0.0578 -0.2610 -0.6890
18400THY    CA250457   4.090   5.442   3.978 -0.4296  0.1832 -0.2943
18400THY    CP150458   4.031   5.327   4.056  0.1771  0.0982  0.0562
18400THY    HP150459   4.006   5.364   4.156  0.1509  0.5208 -1.0609
18400THY    CP250460   4.141   5.216   4.071 -0.0995 -0.8776  0.0343
18400THY    HP250461   4.231   5.247   4.125 -1.0710 -0.5636  2.6268
18400THY    HP350462   4.165   5.182   3.970  0.3570 -0.5200 -0.7091
18400THY    HP450463   4.091   5.136   4.126 -0.1917  0.7692  1.1580
18400THY    CP350464   3.895   5.271   3.994  0.7203 -0.1893 -0.4834
18400THY    HP550465   3.835   5.363   3.986  0.6179 -0.2920 -0.5596
18400THY    HP650466   3.843   5.209   4.068 -1.8122  0.8233  2.5542
18400THY    HP750467   3.882   5.220   3.898 -3.0570 -1.2193  2.0301
18400THY    CA350468   4.099   5.427   3.840 -0.7877 -0.0426  0.0181
18400THY    HA350469   4.070   5.340   3.781  1.2506 -0.8184 -0.1681
18400THY    CA450470   4.142   5.530   3.757  0.3588  0.0264 -0.0271
18400THY    HA450471   4.161   5.510   3.653 -1.7922 -0.1156 -1.6309
18400THY    CA550472   4.184   5.647   3.816 -0.5783 -0.0902 -0.2738
18400THY    CM150473   4.228   5.766   3.728  0.1933 -0.0186 -0.0573
18400THY    HM150474   4.239   5.730   3.625 -0.8433  0.1405 -0.8915
18400THY    HM250475   4.325   5.814   3.745  0.7808 -4.2171  0.6224
18400THY    HM350476   4.150   5.842   3.718  0.5017  1.6749  0.5241
18400THY    CA650477   4.171   5.669   3.952 -0.2613 -0.3668  0.0040
18400THY    HA650478   4.183   5.767   3.997  0.9511 -2.3859  0.8420
18401THY      O50479   8.312   0.753   3.350  0.2981 -0.3983  0.5320
18401THY     HO50480   8.257   0.756   3.430  2.1915  0.9902  0.2993
18401THY    CA150481   8.253   0.652   3.271 -0.2075 -0.2183  0.3087
18401THY    CA250482   8.319   0.591   3.162 -0.8791  0.3149 -0.2450
18401THY    CP150483   8.461   0.643   3.133 -0.3803  0.0085  0.3396
18401THY    HP150484   8.513   0.674   3.225 -0.9702  0.1607  0.9024
18401THY    CP250485   8.466   0.771   3.043  0.0035  0.0273  0.4883
18401THY    HP250486   8.552   0.773   2.976  0.1464  0.2199  0.9891
18401THY    HP350487   8.490   0.846   3.120 -2.5235  0.7583  0.6602
18401THY    HP450488   8.367   0.793   3.000 -0.9593  1.9153  0.0889
18401THY    CP350489   8.558   0.524   3.069  1.0373  0.6781  0.4821
18401THY    HP550490   8.570   0.433   3.128 -2.0913  2.3092  1.0070
18401THY    HP650491   8.659   0.557   3.042  2.8109  0.0639 -4.5281
18401THY    HP750492   8.516   0.497   2.972 -0.4687  1.2998  0.5344
18401THY    CA350493   8.255   0.501   3.081  0.1555  0.4361  0.8146
18401THY    HA350494   8.293   0.463   2.987 -2.9828 -1.1613  1.2913
18401THY    CA450495   8.127   0.459   3.121  0.0806  0.5793  0.2119
18401THY    HA450496   8.073   0.386   3.062 -0.0960  0.9321  0.0512
18401THY    CA550497   8.068   0.507   3.237  0.3844  0.3365 -0.5335
18401THY    CM150498   7.928   0.456   3.279 -0.2937 -0.4919 -0.7373
18401THY    HM150499   7.841   0.497   3.226  0.0338 -0.4123  0.0818
18401THY    HM250500   7.904   0.493   3.380 -1.3856 -0.6767 -0.8968
18401THY    HM350501   7.914   0.347   3.272 -2.0173  1.6191 -0.7290
18401THY    CA650502   8.127   0.605   3.311 -0.8107 -0.1318 -0.4923
18401THY    HA650503   8.074   0.657   3.391  0.9094  0.0606  1.0719
18402THY      O50504   3.754   2.894   4.953 -0.1401 -0.1000  0.5818
18402THY     HO50505   3.831   2.840   4.928 -0.1446 -1.8366  1.3138
18402THY    CA150506   3.654   2.827   4.901 -0.7970  0.0368  0.0945
18402THY    CA250507   3.525   2.879   4.879  0.0168  0.4017 -0.1920
18402THY    CP150508   3.493   3.016   4.929  0.1623  0.0835  0.4554
18402THY    HP150509   3.581   3.072   4.963  0.8557 -1.1027  0.1144
18402THY    CP250510   3.398   3.007   5.051  0.5954 -0.0314  0.0894
18402THY    HP250511   3.306   2.949   5.040 -0.3574  1.6139  1.2031
18402THY    HP350512   3.359   3.097   5.100 -2.7806  0.9312 -1.7195
18402THY    HP450513   3.447   2.948   5.130  0.1205  0.0614 -0.1841
18402THY    CP350514   3.416   3.094   4.819  0.1250 -0.1391 -0.0485
18402THY    HP550515   3.478   3.096   4.729 -0.3549 -0.5223 -1.4440
18402THY    HP650516   3.401   3.199   4.847 -1.9917 -2.3051  0.3159
18402THY    HP750517   3.321   3.044   4.799  0.0465  3.3755 -1.6038
18402THY    CA350518   3.432   2.799   4.803 -0.3083  0.5607 -1.1817
18402THY    HA350519   3.336   2.838   4.773  1.2280 -2.1666  0.8417
18402THY    CA450520   3.466   2.672   4.762  0.2842 -0.0728 -0.2043
18402THY    HA450521   3.389   2.613   4.714  1.1767  1.1326 -2.5052
18402THY    CA550522   3.594   2.619   4.789 -0.0146  0.0682  0.1492
18402THY    CM150523   3.627   2.485   4.733  0.5465 -0.0203 -0.6611
18402THY    HM150524   3.550   2.409   4.745 -0.6697 -0.9871  0.3613
18402THY    HM250525   3.726   2.448   4.760  0.7572 -2.5773 -2.2020
18402THY    HM350526   3.627   2.504   4.625  1.2522  0.0169 -0.4160
18402THY    CA650527   3.693   2.702   4.851  0.7369 -0.5236 -0.7597
18402THY    HA650528   3.790   2.661   4.878  0.5923  0.5054 -0.4357
18403THY      O50529   5.972   1.613   7.306  0.2554  0.0939  0.2022
18403THY     HO50530   5.930   1.548   7.366  0.9178 -0.2632 -0.5779
18403THY    CA150531   6.067   1.663   7.381 -0.3614  0.2643 -0.0513
18403THY    CA250532   6.151   1.762   7.325 -0.3842 -0.1497 -0.3660
18403THY    CP150533   6.150   1.807   7.180 -0.2796  0.6265  1.1400
18403THY    HP150534   6.077   1.745   7.127  1.6451 -0.0128 -0.7306
18403THY    CP250535   6.287   1.793   7.112  0.2292 -0.7483  0.2737
18403THY    HP250536   6.329   1.692   7.125  0.1092 -0.3330  0.2749
18403THY    HP350537   6.366   1.854   7.156  2.0918 -2.0025 -1.1066
18403THY    HP450538   6.274   1.821   7.007 -1.3811 -0.3116  1.2924
18403THY    CP350539   6.098   1.947   7.150 -0.7026 -0.8775  0.0855
18403THY    HP550540   6.103   1.964   7.042  1.2455 -0.9703 -0.8554
18403THY    HP650541   6.162   2.025   7.193 -0.1587  0.1982 -0.9208
18403THY    HP750542   5.997   1.961   7.192 -0.5290  0.1446 -1.4302
18403THY    CA350543   6.235   1.835   7.413  0.6952  0.1333  0.4895
18403THY    HA350544   6.300   1.910   7.369 -2.2502 -1.1194  2.4971
18403THY    CA450545   6.228   1.816   7.562 -0.5733 -0.2559  0.2529
18403THY    HA450546   6.282   1.873   7.637  1.7303 -0.8586 -0.9691
18403THY    CA550547   6.149   1.713   7.610 -0.1536  1.1053  0.7503
18403THY    CM150548   6.127   1.715   7.755 -0.0109 -0.5485  0.3044
18403THY    HM150549   6.022   1.695   7.776 -0.1848 -0.2056  1.5482
18403THY    HM250550   6.156   1.810   7.800 -0.5855 -1.7348  1.0550
18403THY    HM350551   6.184   1.635   7.804  0.6968  0.1379  1.2121
18403THY    CA650552   6.069   1.641   7.520  0.9230 -0.6122  0.2664
18403THY    HA650553   5.997   1.575   7.567  2.1058  0.2377 -0.4544
18404THY      O50554   4.195   0.618   5.316 -0.4554 -0.9037 -0.1772
18404THY     HO50555   4.115   0.588   5.269 -0.1804 -1.4519 -0.0708
18404THY    CA150556   4.294   0.639   5.219  1.0795  0.3752  0.7051
18404THY    CA250557   4.420   0.608   5.251 -0.5178 -0.7178  0.1241
18404THY    CP150558   4.452   0.564   5.399 -0.3129  0.5063 -0.0607
18404THY    HP150559   4.370   0.499   5.431  0.1504  0.9302 -0.4473
18404THY    CP250560   4.471   0.688   5.491 -0.9389 -0.5030 -0.1533
18404THY    HP250561   4.395   0.766   5.477 -0.0492  0.3302  0.9003
18404THY    HP350562   4.564   0.745   5.477  0.0605  2.7957 -0.7985
18404THY    HP450563   4.482   0.665   5.597  2.0727 -0.1393  2.3072
18404THY    CP350564   4.572   0.476   5.404  0.0170  0.3782  0.0990
18404THY    HP550565   4.657   0.545   5.414 -0.0263  1.1483  0.0570
18404THY    HP650566   4.582   0.401   5.325  1.9455 -0.0514  0.7618
18404THY    HP750567   4.564   0.415   5.495 -0.0810 -1.6104 -3.0877
18404THY    CA350568   4.518   0.620   5.138 -0.1715 -0.4829 -0.6598
18404THY    HA350569   4.613   0.569   5.146  0.8289 -0.9850  1.0380
18404THY    CA450570   4.474   0.675   5.019  0.3616 -0.6683  0.9272
18404THY    HA450571   4.540   0.674   4.933  1.1219 -0.1151  1.8079
18404THY    CA550572   4.347   0.730   5.004 -0.4818  0.4068  0.4855
18404THY    CM150573   4.307   0.793   4.875 -0.7081 -0.1760  0.9936
18404THY    HM150574   4.201   0.776   4.853 -0.4737 -0.6040  0.0428
18404THY    HM250575   4.364   0.737   4.800 -1.5477 -0.2614  0.2342
18404THY    HM350576   4.342   0.897   4.877  0.7035 -1.7142  0.5920
18404THY    CA650577   4.251   0.701   5.096  0.1833 -0.5461  0.0703
18404THY    HA650578   4.148   0.725   5.072 -0.1888  1.5089  0.7159
18405THY      O50579   6.669   4.773   7.341  0.0550 -0.2535  0.1517
18405THY     HO50580   6.645   4.679   7.343 -1.5929  0.3734  0.5507
18405THY    CA150581   6.545   4.828   7.339 -0.2103 -0.4777 -0.2659
18405THY    CA250582   6.507   4.911   7.444  0.2759 -0.2241 -0.7005
18405THY    CP150583   6.597   4.918   7.564 -0.7938 -0.5042 -0.2990
18405THY    HP150584   6.647   4.821   7.575  1.0864  0.9262  0.7597
18405THY    CP250585   6.523   4.947   7.700  0.3474  0.1942  0.4029
18405THY    HP250586   6.433   4.885   7.705  0.1179  0.1435  0.7329
18405THY    HP350587   6.494   5.052   7.706 -2.5755 -0.7152 -0.2701
18405THY    HP450588   6.581   4.919   7.789  0.4829  0.6206  1.9254
18405THY    CP350589   6.705   5.023   7.541 -0.1657  0.2331  0.6257
18405THY    HP550590   6.783   5.018   7.618  1.6590 -1.4053  2.3071
18405THY    HP650591   6.657   5.121   7.535  0.5359 -0.5859  0.9298
18405THY    HP750592   6.753   4.999   7.446  0.5191 -0.1930  3.4269
18405THY    CA350593   6.378   4.976   7.431  0.2513 -0.8136  0.2979
18405THY    HA350594   6.338   5.042   7.507  0.3154  1.8532 -2.5105
18405THY    CA450595   6.289   4.947   7.330 -0.0123 -0.4597  0.2321
18405THY    HA450596   6.194   4.999   7.328 -0.8164 -2.1728 -1.2017
18405THY    CA550597   6.326   4.862   7.230 -0.4259  0.4665  0.8629
18405THY    CM150598   6.221   4.840   7.119 -0.1897 -0.3276 -0.1744
18405THY    HM150599   6.136   4.778   7.150  1.0432 -0.5518 -2.0529
18405THY    HM250600   6.273   4.787   7.039  1.0945  1.1200 -1.1690
18405THY    HM350601   6.185   4.937   7.084 -1.4119  0.0890 -0.4561
18405THY    CA650602   6.455   4.802   7.233 -0.5210  0.4862  0.0523
18405THY    HA650603   6.472   4.737   7.147 -3.0743  0.2444 -0.4086
18406THY      O50604   7.271   4.823   4.724 -0.0277 -0.5768 -0.1906
18406THY     HO50605   7.303   4.912   4.702 -1.2442  0.0348  0.4255
18406THY    CA150606   7.257   4.832   4.861 -0.0252  0.5247 -0.4088
18406THY    CA250607   7.238   4.722   4.946 -0.6784 -1.1009  0.1453
18406THY    CP150608   7.249   4.585   4.893 -0.0283  0.4124 -0.1794
18406THY    HP150609   7.219   4.579   4.788 -0.1226  0.3175  1.4126
18406THY    CP250610   7.139   4.493   4.959 -0.2471 -0.4333  0.2563
18406THY    HP250611   7.131   4.392   4.917 -0.3556 -0.7579  0.3980
18406THY    HP350612   7.044   4.546   4.945 -0.3873 -1.0600 -0.1459
18406THY    HP450613   7.155   4.487   5.067 -0.8110 -0.3114  0.8698
18406THY    CP350614   7.392   4.520   4.905  0.1740 -0.3218 -0.2838
18406THY    HP550615   7.388   4.417   4.867 -0.4569  0.5477 -0.5903
18406THY    HP650616   7.410   4.513   5.012  0.1714 -0.0297  2.8164
18406THY    HP750617   7.476   4.573   4.857  0.2082 -1.9921 -1.7351
18406THY    CA350618   7.225   4.750   5.089  0.6502 -0.0451 -0.0577
18406THY    HA350619   7.223   4.664   5.155  0.6216 -0.4735 -0.3884
18406THY    CA450620   7.215   4.879   5.134 -0.3580 -0.6413 -0.1202
18406THY    HA450621   7.199   4.902   5.238  0.8947 -0.6043  0.6502
18406THY    CA550622   7.239   4.982   5.045  0.5691 -0.0863 -0.4813
18406THY    CM150623   7.241   5.126   5.087  0.0226 -0.8291  0.2539
18406THY    HM150624   7.156   5.186   5.051 -1.2146  0.6588 -0.5409
18406THY    HM250625   7.339   5.166   5.057  0.7354 -0.8598 -1.4244
18406THY    HM350626   7.238   5.132   5.197  0.1551 -0.7952 -0.2971
18406THY    CA650627   7.252   4.960   4.908  0.3433  0.4461 -0.0242
18406THY    HA650628   7.257   5.048   4.844  2.1263 -0.6000 -0.8492
18407THY      O50629   8.135   1.236   3.161  0.1002 -0.7298  0.2104
18407THY     HO50630   8.206   1.186   3.204 -0.2689 -0.4093 -0.0453
18407THY    CA150631   8.183   1.263   3.042  0.8761 -0.2676 -0.3520
18407THY    CA250632   8.104   1.309   2.933 -0.3656 -0.2808 -0.9828
18407THY    CP150633   7.953   1.312   2.938  0.8314  0.7649 -0.1545
18407THY    HP150634   7.914   1.289   3.037  1.7459  1.0190 -0.6509
18407THY    CP250635   7.902   1.196   2.854  0.0508  0.8028  0.5438
18407THY    HP250636   7.797   1.208   2.825 -0.9170  3.5577 -0.5375
18407THY    HP350637   7.909   1.097   2.900 -3.0640  4.0122  1.6089
18407THY    HP450638   7.968   1.186   2.767  3.2850  3.1261 -0.0311
18407THY    CP350639   7.909   1.454   2.893  0.0504  0.0538  0.7364
18407THY    HP550640   7.802   1.467   2.914 -0.0696 -0.3357  0.4298
18407THY    HP650641   7.918   1.468   2.785  0.4208 -0.2342 -1.3683
18407THY    HP750642   7.959   1.535   2.946 -1.7540  1.3956  1.0211
18407THY    CA350643   8.171   1.342   2.810 -0.6632  0.3443 -0.6137
18407THY    HA350644   8.127   1.379   2.718 -0.0526  0.1677 -0.3217
18407THY    CA450645   8.311   1.343   2.809 -0.9289 -0.6171  0.1805
18407THY    HA450646   8.368   1.383   2.725  1.7287  1.3580  0.8061
18407THY    CA550647   8.387   1.280   2.917 -0.5049  0.1484  0.4222
18407THY    CM150648   8.537   1.266   2.899  0.4209 -0.7920 -0.2086
18407THY    HM150649   8.584   1.186   2.957 -0.1777 -1.5654 -1.1418
18407THY    HM250650   8.598   1.354   2.924  0.0772 -0.1993 -0.1310
18407THY    HM350651   8.557   1.252   2.792  2.6862 -0.2201 -1.9620
18407THY    CA650652   8.317   1.239   3.031 -0.0001  0.5936 -0.0725
18407THY    HA650653   8.377   1.207   3.116  1.0342  0.0108  0.2596
18408THY      O50654   5.704   4.911   5.970 -0.1500 -0.3405 -0.0181
18408THY     HO50655   5.778   4.949   6.021 -0.9328  0.0079  1.0941
18408THY    CA150656   5.732   4.929   5.840  0.1342  0.8652  0.0722
18408THY    CA250657   5.628   4.930   5.743  0.0234  0.5596  0.5479
18408THY    CP150658   5.481   4.892   5.773  0.3893 -0.2876 -0.1215
18408THY    HP150659   5.476   4.862   5.878  0.9308  0.5578  2.5583
18408THY    CP250660   5.447   4.772   5.689  0.6258 -0.1568  0.2289
18408THY    HP250661   5.461   4.792   5.582  1.1823 -0.5332 -1.8957
18408THY    HP350662   5.348   4.726   5.700  0.6467  0.5294  0.3334
18408THY    HP450663   5.528   4.701   5.710  0.7164 -0.1459  0.3340
18408THY    CP350664   5.381   5.010   5.752 -0.9871  0.6206  0.0609
18408THY    HP550665   5.400   5.067   5.660 -0.6939  1.7458  1.8433
18408THY    HP650666   5.392   5.089   5.826  1.5402  1.0097 -0.5690
18408THY    HP750667   5.275   4.981   5.742 -1.2006  2.3956  0.1175
18408THY    CA350668   5.665   4.979   5.617  0.5118 -0.0036 -0.0702
18408THY    HA350669   5.589   4.991   5.541  0.2834  0.3211  0.5936
18408THY    CA450670   5.793   5.012   5.587  0.5629 -0.1907  0.3687
18408THY    HA450671   5.812   5.039   5.484  0.2408 -0.4193 -0.2675
18408THY    CA550672   5.893   5.014   5.684  0.1522 -0.0703 -0.2580
18408THY    CM150673   6.032   5.063   5.654  0.4312 -0.3003  0.4618
18408THY    HM150674   6.113   4.991   5.673 -0.3688  2.6937  0.2302
18408THY    HM250675   6.050   5.154   5.711 -1.1051  1.0753 -0.0535
18408THY    HM350676   6.039   5.083   5.546 -0.9663 -0.7523 -1.1960
18408THY    CA650677   5.858   4.988   5.817 -0.1779 -0.1085 -0.5517
18408THY    HA650678   5.935   5.005   5.891 -1.3731  0.4796  3.3634
18409THY      O50679   0.629   1.502   3.383 -0.4802 -0.2763 -0.0892
18409THY     HO50680   0.574   1.518   3.461 -1.3112 -0.5664 -1.4279
18409THY    CA150681   0.762   1.511   3.420  0.0508 -0.2398  0.5206
18409THY    CA250682   0.860   1.542   3.318  0.2096 -0.3123  0.4561
18409THY    CP150683   0.828   1.555   3.168  0.0408 -0.3772 -0.4580
18409THY    HP150684   0.726   1.592   3.179  1.0540  1.6525  1.9980
18409THY    CP250685   0.836   1.424   3.095  0.6850 -0.2972  0.6961
18409THY    HP250686   0.823   1.443   2.988 -0.9667 -0.4236 -0.8862
18409THY    HP350687   0.767   1.345   3.126  1.6807 -0.6923 -0.3499
18409THY    HP450688   0.927   1.365   3.110 -0.1524 -0.9591 -0.8188
18409THY    CP350689   0.905   1.667   3.092  0.0849  0.8174 -0.3703
18409THY    HP550690   0.837   1.746   3.059  0.9213 -1.1075 -0.3986
18409THY    HP650691   0.949   1.640   2.995  1.4467  0.8611  1.4891
18409THY    HP750692   0.995   1.709   3.138  2.3258 -1.6799 -2.1100
18409THY    CA350693   0.992   1.564   3.360  0.5912 -0.1300 -0.4897
18409THY    HA350694   1.073   1.592   3.293  0.0789 -0.2319  0.8237
18409THY    CA450695   1.017   1.561   3.496  0.1443 -0.8289  0.1388
18409THY    HA450696   1.117   1.595   3.517  0.3936 -0.1271 -0.9782
18409THY    CA550697   0.913   1.540   3.590  0.3806  0.0654 -0.4093
18409THY    CM150698   0.943   1.526   3.734  0.0852  0.4433 -0.3006
18409THY    HM150699   0.848   1.542   3.786 -1.3328 -2.2830  0.7222
18409THY    HM250700   1.028   1.594   3.751 -1.2176  1.1586  1.2218
18409THY    HM350701   0.975   1.422   3.748  0.6311  1.2151 -0.0391
18409THY    CA650702   0.792   1.498   3.554  0.0420  0.3551  0.1810
18409THY    HA650703   0.726   1.453   3.627  0.8914  1.3229  0.4671
18410THY      O50704   4.734   7.071   3.291  0.2423  0.2443  0.2502
18410THY     HO50705   4.716   7.139   3.358 -1.8738  0.5523 -0.5088
18410THY    CA150706   4.698   6.952   3.347  0.5211 -0.2179 -0.4540
18410THY    CA250707   4.774   6.836   3.326  0.6327 -0.3767  0.5314
18410THY    CP150708   4.897   6.848   3.233 -0.1411  0.7950  0.1594
18410THY    HP150709   4.928   6.953   3.230  0.2594  1.6577  0.0717
18410THY    CP250710   4.860   6.802   3.089 -0.0676  0.7015  0.4426
18410THY    HP250711   4.751   6.803   3.084 -0.0586  0.2880 -0.2960
18410THY    HP350712   4.896   6.700   3.070  1.0411  0.1443  0.9193
18410THY    HP450713   4.903   6.861   3.007  1.0610  0.1744 -1.0503
18410THY    CP350714   5.019   6.769   3.277 -0.5931  0.1663 -0.2502
18410THY    HP550715   5.100   6.792   3.206 -0.1072  0.9792  0.6248
18410THY    HP650716   5.005   6.661   3.272  2.4350  0.5615 -0.7553
18410THY    HP750717   5.056   6.784   3.378  1.5992 -0.7153  0.7183
18410THY    CA350718   4.719   6.720   3.375 -0.4383 -0.1457  0.3352
18410THY    HA350719   4.766   6.624   3.354 -0.3518 -0.7004  0.4928
18410THY    CA450720   4.606   6.719   3.457  0.3515  0.1693 -0.0031
18410THY    HA450721   4.583   6.628   3.511  3.4459  0.8617 -0.4724
18410THY    CA550722   4.543   6.843   3.490 -0.5401 -0.1508  0.2055
18410THY    CM150723   4.445   6.841   3.603  0.0569 -0.2687 -0.4123
18410THY    HM150724   4.493   6.854   3.701  0.0301 -0.2652 -0.3342
18410THY    HM250725   4.377   6.755   3.601 -1.0150 -0.7735  0.4190
18410THY    HM350726   4.386   6.932   3.585 -0.2143 -2.5304 -0.9761
18410THY    CA650727   4.586   6.961   3.436 -0.5819  0.0370 -0.5252
18410THY    HA650728   4.538   7.055   3.463  0.2949  0.8586 -0.3099
18411THY      O50729   1.145   2.364   7.356 -0.8358 -0.1789 -0.3744
18411THY     HO50730   1.144   2.313   7.439 -2.2216  0.1438  0.1413
18411THY    CA150731   1.170   2.280   7.250  0.2730 -0.2429  1.0840
18411THY    CA250732   1.099   2.285   7.126  0.0792 -0.5716 -0.2335
18411THY    CP150733   1.025   2.411   7.087 -0.4977 -0.3535  0.0794
18411THY    HP150734   1.019   2.467   7.181  0.6073  0.0372 -0.4185
18411THY    CP250735   0.885   2.384   7.034 -0.2627  0.3579  0.4531
18411THY    HP250736   0.833   2.310   7.096  1.0591  0.6181 -0.2740
18411THY    HP350737   0.877   2.339   6.934 -1.8453  0.5387  0.2696
18411THY    HP450738   0.819   2.472   7.037  0.5592  1.8373  1.0464
18411THY    CP350739   1.098   2.491   6.984 -0.4166  0.5075  0.8569
18411THY    HP550740   1.128   2.435   6.895  1.1672  1.3697  0.2940
18411THY    HP650741   1.182   2.542   7.032  0.0550 -1.8482  2.4534
18411THY    HP750742   1.029   2.569   6.948 -1.9175 -0.3704 -0.7944
18411THY    CA350743   1.108   2.176   7.038 -0.5246  0.7310 -0.5985
18411THY    HA350744   1.058   2.176   6.942  0.8701 -0.0295 -0.1037
18411THY    CA450745   1.177   2.055   7.075 -0.3951  0.6563  0.4152
18411THY    HA450746   1.170   1.968   7.010 -2.2075  0.7871  0.4203
18411THY    CA550747   1.242   2.050   7.200  0.1612  0.2338 -0.0537
18411THY    CM150748   1.308   1.914   7.257 -0.2751  0.0654 -1.0332
18411THY    HM150749   1.229   1.867   7.316 -4.0520 -2.3849  1.6516
18411THY    HM250750   1.396   1.931   7.319 -0.0054 -0.2344 -1.3079
18411THY    HM350751   1.322   1.853   7.166 -4.6821 -0.4126 -1.6899
18411THY    CA650752   1.240   2.165   7.284 -0.0007 -0.3196 -0.4190
18411THY    HA650753   1.289   2.154   7.381  2.5462 -1.5340 -0.6527
18412THY      O50754   4.796   6.012   3.862  0.9319 -0.5101 -0.0151
18412THY     HO50755   4.800   6.094   3.914  1.4321 -2.8366  1.5416
18412THY    CA150756   4.805   6.060   3.740 -0.2813 -0.1818  0.2124
18412THY    CA250757   4.895   6.002   3.648  0.1367  0.4219  0.4798
18412THY    CP150758   4.985   5.886   3.673 -0.1982 -0.8843  0.3941
18412THY    HP150759   4.967   5.865   3.779  1.3300 -0.5114  0.8439
18412THY    CP250760   5.133   5.925   3.676  0.8579  0.6347  0.5942
18412THY    HP250761   5.196   5.836   3.685  0.7889  0.2591  0.5070
18412THY    HP350762   5.172   5.992   3.754  2.3389 -0.6733  1.3282
18412THY    HP450763   5.150   5.975   3.580 -1.8211 -0.1500  0.1471
18412THY    CP350764   4.953   5.760   3.589  0.8904 -0.5928 -0.1447
18412THY    HP550765   5.003   5.771   3.493  0.7578 -0.6283  0.1617
18412THY    HP650766   4.845   5.743   3.579  0.9676 -0.3687 -0.8220
18412THY    HP750767   5.010   5.675   3.629  0.5984  1.8136  0.6895
18412THY    CA350768   4.885   6.051   3.515  0.4354  0.1240  0.4417
18412THY    HA350769   4.949   6.005   3.440 -1.6940 -0.6964 -1.3570
18412THY    CA450770   4.802   6.153   3.483  0.4539 -0.0938  0.0208
18412THY    HA450771   4.800   6.201   3.385  0.8348  0.8654  2.1149
18412THY    CA550772   4.725   6.214   3.576 -0.0986 -0.2958  0.0401
18412THY    CM150773   4.643   6.332   3.532 -0.7838 -0.0314  0.2526
18412THY    HM150774   4.546   6.310   3.486 -0.6073 -0.2128 -0.1454
18412THY    HM250775   4.696   6.402   3.466 -1.1368 -1.1457 -0.5010
18412THY    HM350776   4.621   6.388   3.624  0.6623 -0.5033  1.6841
18412THY    CA650777   4.724   6.168   3.708  0.1242 -0.8541  1.0538
18412THY    HA650778   4.671   6.227   3.782 -0.4988 -0.2234 -0.2589
18413THY      O50779   6.570   7.687   2.551  0.0914  0.4251  0.9785
18413THY     HO50780   6.535   7.767   2.510 -0.9351 -1.4929 -0.3624
18413THY    CA150781   6.696   7.721   2.568  0.2123  0.1700 -0.3767
18413THY    CA250782   6.779   7.655   2.662  0.1107  0.5373 -0.7067
18413THY    CP150783   6.739   7.534   2.742 -0.1755 -0.3882  0.5160
18413THY    HP150784   6.651   7.488   2.695  0.7813  0.0093 -1.9232
18413THY    CP250785   6.711   7.576   2.888 -0.4473 -0.5215 -0.5563
18413THY    HP250786   6.661   7.491   2.937  0.5725  0.5503 -0.5577
18413THY    HP350787   6.639   7.659   2.894  0.9631 -1.0500  0.7490
18413THY    HP450788   6.796   7.608   2.949 -1.6054  1.5575 -1.2432
18413THY    CP350789   6.841   7.418   2.748 -0.2612  0.5788 -0.7226
18413THY    HP550790   6.931   7.444   2.804  1.8589 -2.8865  0.1288
18413THY    HP650791   6.876   7.392   2.647  0.4833  0.4541  0.6580
18413THY    HP750792   6.801   7.327   2.793  1.5170 -0.3194 -2.0087
18413THY    CA350793   6.910   7.710   2.674  0.0012  0.9600  0.5633
18413THY    HA350794   6.981   7.678   2.750  0.5196  1.2174  2.2378
18413THY    CA450795   6.956   7.817   2.592 -0.4728  0.2988  0.2144
18413THY    HA450796   7.060   7.842   2.608  0.3392 -2.2917 -1.1472
18413THY    CA550797   6.874   7.872   2.496 -0.1210  0.6932 -0.3801
18413THY    CM150798   6.937   7.970   2.405  0.3632 -0.1671  1.4128
18413THY    HM150799   7.044   7.943   2.405 -0.1089 -0.3040 -0.6492
18413THY    HM250800   6.930   8.068   2.452  1.1679  0.1185  1.3486
18413THY    HM350801   6.907   7.967   2.300  2.3377 -0.7764  0.3292
18413THY    CA650802   6.745   7.823   2.484  0.9041  0.5718 -0.2022
18413THY    HA650803   6.688   7.869   2.404  2.5843 -0.2672  0.5427
18414THY      O50804   5.379   7.249   2.045  0.0028 -0.3101 -0.0006
18414THY     HO50805   5.397   7.243   1.950 -0.3404 -0.4671  1.2750
18414THY    CA150806   5.359   7.379   2.077 -1.3048  0.6052  0.5546
18414THY    CA250807   5.386   7.428   2.208 -0.2990  0.3495  0.6380
18414THY    CP150808   5.420   7.338   2.323 -0.4766  0.0999 -0.7225
18414THY    HP150809   5.426   7.233   2.291 -1.9954 -0.5243 -0.6467
18414THY    CP250810   5.304   7.339   2.430 -0.2614  0.1220 -0.2727
18414THY    HP250811   5.322   7.264   2.509 -2.1309  0.5169 -0.3413
18414THY    HP350812   5.212   7.330   2.373 -0.0184 -0.1395 -1.2396
18414THY    HP450813   5.299   7.440   2.473  0.9706  0.1579 -0.2020
18414THY    CP350814   5.561   7.359   2.385 -0.3660  0.2385 -0.9208
18414THY    HP550815   5.636   7.353   2.306  0.0970  0.6215 -0.2075
18414THY    HP650816   5.572   7.284   2.464  1.1044  1.0243  0.0747
18414THY    HP750817   5.574   7.456   2.434  0.2451 -0.3765 -0.6856
18414THY    CA350818   5.369   7.570   2.235  0.3960 -0.0718 -0.1937
18414THY    HA350819   5.368   7.605   2.338 -2.2601 -0.3798  0.8333
18414THY    CA450820   5.340   7.667   2.126  0.4809  0.0742  0.4422
18414THY    HA450821   5.319   7.773   2.135  0.3909  0.7014  0.3791
18414THY    CA550822   5.316   7.608   2.001  0.1728 -0.5358 -0.5515
18414THY    CM150823   5.280   7.697   1.884 -1.0611  0.0342  0.3926
18414THY    HM150824   5.224   7.789   1.901 -0.2099 -0.1166  0.9461
18414THY    HM250825   5.224   7.641   1.808 -0.6249  0.3366 -0.4764
18414THY    HM350826   5.373   7.734   1.839  0.8432  2.7534 -0.7544
18414THY    CA650827   5.325   7.468   1.977  0.3863 -0.1535 -0.5966
18414THY    HA650828   5.293   7.438   1.879 -2.7496 -0.1437  2.1261
18415THY      O50829   0.309   0.538   2.598 -0.3642  0.0443  0.5307
18415THY     HO50830   0.328   0.456   2.647 -2.6433  0.2300  0.0465
18415THY    CA150831   0.320   0.517   2.469  0.1863 -0.3144 -0.2669
18415THY    CA250832   0.300   0.619   2.375  0.0157 -0.5975 -0.0069
18415THY    CP150833   0.260   0.758   2.431 -0.2543  0.3316 -0.1242
18415THY    HP150834   0.212   0.760   2.530  1.5768  1.2431  0.2443
18415THY    CP250835   0.150   0.813   2.339 -0.3709 -0.2354  0.2846
18415THY    HP250836   0.113   0.909   2.376  0.1146  0.5828  0.1654
18415THY    HP350837   0.067   0.741   2.347  0.6640 -1.6744 -1.1337
18415THY    HP450838   0.175   0.825   2.233 -0.7061 -0.5036 -1.2021
18415THY    CP350839   0.377   0.863   2.426  0.8862  0.1809  0.4321
18415THY    HP550840   0.346   0.964   2.456  0.0223  1.6256 -0.2323
18415THY    HP650841   0.397   0.872   2.319  0.4132  0.1324  0.9790
18415THY    HP750842   0.471   0.828   2.471 -0.0997  1.8909 -0.1566
18415THY    CA350843   0.325   0.586   2.235 -0.7748 -0.2549  0.0504
18415THY    HA350844   0.321   0.666   2.162  4.0245 -0.6515  0.1912
18415THY    CA450845   0.366   0.460   2.191  0.4580  0.2424  0.3831
18415THY    HA450846   0.371   0.447   2.083 -3.6449 -0.0850 -0.0435
18415THY    CA550847   0.390   0.366   2.290  0.0352  0.2093 -0.4434
18415THY    CM150848   0.438   0.234   2.248  0.1750  0.5422 -0.0838
18415THY    HM150849   0.360   0.174   2.200  0.6211  0.2308 -0.4231
18415THY    HM250850   0.472   0.180   2.338  1.4561  0.2011  0.1115
18415THY    HM350851   0.512   0.234   2.167  0.7634  1.0525 -0.9951
18415THY    CA650852   0.362   0.393   2.427  0.1769  0.5892 -0.5958
18415THY    HA650853   0.376   0.310   2.496  1.7638  0.8482 -0.1392
18416THY      O50854   5.545   4.340   3.843 -0.1256 -0.1154  0.2574
18416THY     HO50855   5.585   4.413   3.894  1.6136 -0.2035 -0.5716
18416THY    CA150856   5.418   4.376   3.818 -1.2717 -0.0633  0.3096
18416THY    CA250857   5.318   4.282   3.785 -0.2875 -0.0451  0.0221
18416THY    CP150858   5.347   4.129   3.783 -0.7561 -0.4220  0.0422
18416THY    HP150859   5.454   4.104   3.777 -1.0782  1.1391 -1.8879
18416THY    CP250860   5.287   4.058   3.663 -0.4720  0.6647  0.4550
18416THY    HP250861   5.186   4.096   3.643 -1.3980  0.9843 -1.7252
18416THY    HP350862   5.281   3.949   3.672 -0.3942  0.9719  0.4746
18416THY    HP450863   5.354   4.063   3.576  1.0271  1.6760 -0.8643
18416THY    CP350864   5.292   4.068   3.913  0.1531 -0.3178  0.5056
18416THY    HP550865   5.182   4.073   3.910  0.0343  0.1482 -1.2181
18416THY    HP650866   5.336   4.122   3.998  0.5388  0.0621 -0.4003
18416THY    HP750867   5.322   3.964   3.930  0.0989 -3.0102 -0.0209
18416THY    CA350868   5.189   4.335   3.761  0.3500 -0.6266 -0.3575
18416THY    HA350869   5.102   4.274   3.736 -0.3756  2.3646 -0.6951
18416THY    CA450870   5.173   4.475   3.762 -0.8013 -0.3642 -0.6361
18416THY    HA450871   5.079   4.527   3.745  0.9966  0.0935  3.0841
18416THY    CA550872   5.273   4.569   3.789  0.2647 -0.5317  0.4383
18416THY    CM150873   5.254   4.721   3.788 -0.1221 -0.0431 -0.8639
18416THY    HM150874   5.303   4.764   3.876  1.2021 -1.0150 -0.3287
18416THY    HM250875   5.150   4.752   3.800  0.4294 -0.2479  1.2073
18416THY    HM350876   5.296   4.771   3.700 -0.6132 -1.5862 -3.0055
18416THY    CA650877   5.398   4.515   3.822 -0.0986  0.5794  0.0970
18416THY    HA650878   5.480   4.586   3.832 -2.1874 -0.0207  2.7847
18417THY      O50879   4.465   8.683   3.022  0.4250  1.3271 -0.1456
18417THY     HO50880   4.501   8.762   2.980 -2.4247  2.2374  1.8129
18417THY    CA150881   4.351   8.654   2.951 -0.5090  0.3201  0.2816
18417THY    CA250882   4.254   8.552   2.987 -1.1633 -0.2149 -0.3095
18417THY    CP150883   4.274   8.472   3.109  0.2119 -0.1134 -0.0927
18417THY    HP150884   4.340   8.530   3.176 -1.4878  2.6729 -1.1756
18417THY    CP250885   4.353   8.337   3.090  0.7050  0.2811 -0.4659
18417THY    HP250886   4.297   8.271   3.023 -1.2590  0.9687  0.4433
18417THY    HP350887   4.374   8.291   3.187  0.2825  1.5276  1.8092
18417THY    HP450888   4.443   8.361   3.031  0.6198  0.6198  0.7464
18417THY    CP350889   4.150   8.447   3.194 -0.3022 -0.2316 -0.2642
18417THY    HP550890   4.098   8.541   3.217  0.8480 -1.4508  0.7050
18417THY    HP650891   4.178   8.401   3.290 -1.8298  0.8058  0.8843
18417THY    HP750892   4.080   8.379   3.144  2.5360 -2.1276 -2.0095
18417THY    CA350893   4.142   8.541   2.910 -0.4148 -0.0564 -0.8412
18417THY    HA350894   4.063   8.473   2.940 -1.8954  0.7124  1.0984
18417THY    CA450895   4.115   8.617   2.797  0.4250  0.4383 -0.7757
18417THY    HA450896   4.029   8.598   2.733  0.6703 -0.0507 -0.2823
18417THY    CA550897   4.209   8.709   2.764  0.0420  0.8294  0.5661
18417THY    CM150898   4.192   8.793   2.638 -0.5026  0.1379 -0.1101
18417THY    HM150899   4.258   8.762   2.557 -1.3844  0.2151 -2.3178
18417THY    HM250900   4.218   8.899   2.653  3.1343 -1.7995 -0.5898
18417THY    HM350901   4.090   8.805   2.600 -0.2741 -0.3302  0.4147
18417THY    CA650902   4.326   8.728   2.837  0.2851  0.7326  0.9121
18417THY    HA650903   4.383   8.816   2.807  0.3064 -0.1004  0.6227
18418THY      O50904   5.666   7.917   6.770  0.2020 -0.3167 -0.1821
18418THY     HO50905   5.698   7.878   6.853  3.0811 -0.4185  1.6099
18418THY    CA150906   5.672   8.044   6.798 -1.4848  0.0493 -0.3653
18418THY    CA250907   5.705   8.135   6.699 -0.8360  0.2725  0.2157
18418THY    CP150908   5.710   8.090   6.545  0.0564  0.3611  0.3860
18418THY    HP150909   5.731   7.983   6.533 -1.4735  1.0655 -0.0163
18418THY    CP250910   5.831   8.155   6.468  0.1480  0.3153  0.3546
18418THY    HP250911   5.925   8.121   6.514  1.9719 -1.3310  2.7718
18418THY    HP350912   5.826   8.265   6.476 -0.5586 -2.2757  0.5702
18418THY    HP450913   5.827   8.129   6.362 -2.3119  0.8710 -1.8864
18418THY    CP350914   5.572   8.121   6.480 -0.4262 -0.4340 -0.1036
18418THY    HP550915   5.580   8.227   6.453  1.0984 -0.2825 -0.1615
18418THY    HP650916   5.493   8.104   6.554  1.1933  1.9287  1.8687
18418THY    HP750917   5.552   8.052   6.398  0.1072  1.3977 -2.5856
18418THY    CA350918   5.737   8.269   6.732 -0.1467  0.8617  0.1276
18418THY    HA350919   5.746   8.343   6.654  0.3247  0.7845 -0.0059
18418THY    CA450920   5.725   8.308   6.867 -0.2850 -0.3478  0.9113
18418THY    HA450921   5.747   8.412   6.891 -0.2913  1.9538  0.4346
18418THY    CA550922   5.704   8.213   6.966 -0.8366  0.6748 -0.1260
18418THY    CM150923   5.694   8.253   7.103 -0.1250 -0.1085  0.1761
18418THY    HM150924   5.735   8.173   7.165  0.2598 -0.8893 -0.2497
18418THY    HM250925   5.589   8.261   7.133  0.0145  0.2265  0.8584
18418THY    HM350926   5.746   8.346   7.132  2.6706  0.6031 -1.4769
18418THY    CA650927   5.681   8.083   6.932 -0.1307  0.3147  0.4851
18418THY    HA650928   5.666   8.000   7.002 -1.1786 -2.2851 -1.6616
18419THY      O50929   1.502   5.618   4.134 -0.1160  0.0584  0.6320
18419THY     HO50930   1.466   5.551   4.074  0.8504  0.6273 -0.4378
18419THY    CA150931   1.420   5.633   4.240 -0.2529  0.1224  0.0437
18419THY    CA250932   1.451   5.701   4.358 -0.5732  0.3256  0.4556
18419THY    CP150933   1.596   5.750   4.394  0.3748 -0.3064  0.0637
18419THY    HP150934   1.673   5.702   4.331  2.3332  2.4134 -0.6484
18419THY    CP250935   1.636   5.719   4.541  0.3021  0.4522  0.1162
18419THY    HP250936   1.745   5.732   4.548  0.7086 -4.4105  1.1567
18419THY    HP350937   1.620   5.615   4.571  2.0204  0.9775 -0.0424
18419THY    HP450938   1.606   5.797   4.613 -1.4244  0.3531 -0.4274
18419THY    CP350939   1.631   5.904   4.351 -0.2100 -0.0938 -0.0754
18419THY    HP550940   1.739   5.924   4.359 -0.4715  0.2694  1.2635
18419THY    HP650941   1.571   5.973   4.412  0.9286 -1.6127  2.3821
18419THY    HP750942   1.610   5.918   4.245  2.9006 -0.8292 -0.1424
18419THY    CA350943   1.350   5.714   4.457  0.6144  0.3226 -0.2724
18419THY    HA350944   1.381   5.769   4.545 -1.0303  1.1568 -0.6303
18419THY    CA450945   1.223   5.665   4.440 -0.2443 -1.6790 -1.5620
18419THY    HA450946   1.150   5.678   4.520  2.1223  0.4940 -0.5358
18419THY    CA550947   1.189   5.599   4.319 -0.4528 -0.1451 -0.5072
18419THY    CM150948   1.054   5.554   4.301  0.3360 -0.2175  0.0120
18419THY    HM150949   0.978   5.629   4.323 -0.6184 -1.9402 -0.3913
18419THY    HM250950   1.049   5.466   4.365 -0.9119 -0.0539  0.1873
18419THY    HM350951   1.038   5.516   4.199  0.3431 -0.8646  1.6551
18419THY    CA650952   1.291   5.588   4.224 -0.5119 -0.1004 -0.3638
18419THY    HA650953   1.259   5.542   4.131 -3.3336 -0.1022  1.3734
18420THY      O50954   8.466   3.962   5.532  0.2015  0.3152  0.1409
18420THY     HO50955   8.437   4.024   5.600 -0.1618  0.3305 -0.0475
18420THY    CA150956   8.362   3.937   5.452  0.3183 -0.9016 -0.7196
18420THY    CA250957   8.319   3.813   5.397 -0.4460  0.2897 -0.5505
18420THY    CP150958   8.396   3.682   5.438 -0.6147 -0.1975 -0.4282
18420THY    HP150959   8.504   3.697   5.450 -0.3306 -0.0318 -2.2998
18420THY    CP250960   8.394   3.573   5.333 -0.1660 -0.2579 -0.1219
18420THY    HP250961   8.481   3.510   5.355 -0.4249  1.2735  0.0016
18420THY    HP350962   8.403   3.611   5.231 -0.9741 -0.9539 -1.7245
18420THY    HP450963   8.315   3.498   5.340 -0.4757 -2.1872 -0.0211
18420THY    CP350964   8.352   3.621   5.570 -0.5857 -0.7753 -0.5239
18420THY    HP550965   8.415   3.541   5.610 -0.8565  1.3162  0.2206
18420THY    HP650966   8.251   3.579   5.559 -0.2148 -0.8590 -1.4135
18420THY    HP750967   8.349   3.690   5.655 -1.6900  0.0557 -1.5497
18420THY    CA350968   8.204   3.812   5.314 -0.3373  0.1504 -0.5351
18420THY    HA350969   8.169   3.717   5.275  0.3958  1.0242 -1.1834
18420THY    CA450970   8.141   3.937   5.279 -0.0523  0.1380 -0.3423
18420THY    HA450971   8.060   3.943   5.207  0.9170 -0.8465  2.4802
18420THY    CA550972   8.197   4.059   5.323  0.1418  0.0297 -0.0979
18420THY    CM150973   8.132   4.192   5.293 -0.3115 -0.3666 -0.1747
18420THY    HM150974   8.027   4.192   5.326 -0.8422 -2.0033 -0.0886
18420THY    HM250975   8.134   4.209   5.185  1.7642 -0.4933 -0.9715
18420THY    HM350976   8.188   4.274   5.339 -1.0059  0.0312  0.0871
18420THY    CA650977   8.308   4.050   5.408 -0.9949  0.2589 -0.3497
18420THY    HA650978   8.352   4.145   5.439 -0.5186 -0.8124 -0.2014
18421THY      O50979   4.885   0.971   7.296  0.3910 -0.9255  1.1440
18421THY     HO50980   4.923   0.887   7.268 -0.3505 -1.1178  0.8627
18421THY    CA150981   4.970   1.019   7.390  0.1246 -0.2982 -0.3843
18421THY    CA250982   4.948   1.148   7.438  0.7079 -0.6413  0.1232
18421THY    CP150983   4.844   1.248   7.369  0.0207  0.2011  0.2631
18421THY    HP150984   4.775   1.190   7.307 -1.2503  1.7153  0.0950
18421THY    CP250985   4.923   1.350   7.282  0.4945 -0.3087  0.1004
18421THY    HP250986   5.007   1.312   7.223  1.4081  0.9573  0.0866
18421THY    HP350987   4.952   1.438   7.340 -1.0271 -0.2622  0.5921
18421THY    HP450988   4.857   1.383   7.201  0.5232 -0.0541  0.7907
18421THY    CP350989   4.761   1.328   7.472 -0.2834 -0.5856 -0.8931
18421THY    HP550990   4.736   1.420   7.418 -0.4942 -3.2885 -2.4535
18421THY    HP650991   4.813   1.355   7.566  1.5029 -2.0202  0.9968
18421THY    HP750992   4.664   1.283   7.496 -1.6370  1.1836  2.5882
18421THY    CA350993   5.046   1.199   7.527 -0.3554 -0.3899  0.0424
18421THY    HA350994   5.028   1.297   7.572 -0.6134  2.7074 -1.3050
18421THY    CA450995   5.148   1.115   7.577  0.5567 -0.1674 -0.7295
18421THY    HA450996   5.215   1.154   7.652  0.0784 -0.6029  1.0336
18421THY    CA550997   5.160   0.986   7.523 -0.0609  0.3526  0.1300
18421THY    CM150998   5.278   0.909   7.571 -0.6779 -0.1827 -0.1646
18421THY    HM150999   5.255   0.870   7.671 -0.3699 -0.0794 -0.0870
18421THY    HM251000   5.375   0.959   7.578 -0.0441 -2.8258 -0.8537
18421THY    HM351001   5.288   0.814   7.517 -1.8233 -0.6646 -0.0241
18421THY    CA651002   5.069   0.938   7.432 -0.1071  0.0388  0.0851
18421THY    HA651003   5.081   0.838   7.392 -0.8789  2.4195 -1.0323
18422THY      O51004   2.514   3.963   4.860 -0.5260 -0.4378 -0.4291
18422THY     HO51005   2.502   3.995   4.951 -1.3883 -0.5491 -0.4108
18422THY    CA151006   2.501   4.070   4.775 -0.3755  0.2295 -0.0008
18422THY    CA251007   2.533   4.045   4.640 -0.5529  0.4167 -0.1259
18422THY    CP151008   2.557   3.902   4.588 -0.1819  0.0885  0.2528
18422THY    HP151009   2.518   3.835   4.666  3.0224  2.1305  0.5311
18422THY    CP251010   2.703   3.892   4.556 -0.3550 -0.7140 -0.0988
18422THY    HP251011   2.727   3.787   4.533  1.2298  2.3993 -0.5457
18422THY    HP351012   2.767   3.915   4.642  1.1716 -0.7371 -3.6280
18422THY    HP451013   2.730   3.962   4.477  0.6889  1.2627  1.8620
18422THY    CP351014   2.472   3.873   4.455 -0.1776 -0.5842  0.0864
18422THY    HP551015   2.466   3.765   4.433 -1.3441  0.3092 -0.0484
18422THY    HP651016   2.497   3.934   4.368  2.5298  1.3494  1.9663
18422THY    HP751017   2.368   3.894   4.480 -0.3266 -0.6049 -0.6037
18422THY    CA351018   2.529   4.151   4.552 -0.3025  0.5557  0.3439
18422THY    HA351019   2.536   4.141   4.444 -0.5088  0.7057 -1.7862
18422THY    CA451020   2.494   4.281   4.600  0.3644  0.2120  0.1627
18422THY    HA451021   2.481   4.372   4.542 -0.0303 -0.7916 -0.5209
18422THY    CA551022   2.484   4.303   4.740 -0.2493 -0.3656  0.4176
18422THY    CM151023   2.444   4.444   4.789  0.5339  0.1773 -0.3353
18422THY    HM151024   2.500   4.522   4.736 -0.4292 -0.3475  0.0109
18422THY    HM251025   2.466   4.454   4.896 -0.1790  0.4020 -1.0930
18422THY    HM351026   2.341   4.473   4.768  1.0939 -1.5224  0.5695
18422THY    CA651027   2.485   4.193   4.830  0.5196 -0.4837 -1.1037
18422THY    HA651028   2.462   4.208   4.935 -0.4907 -0.0281 -4.8158
18423THY      O51029   0.469   5.982   5.819 -0.2745  0.0779 -0.5958
18423THY     HO51030   0.449   5.964   5.912 -0.2113  0.6810  1.9692
18423THY    CA151031   0.388   6.079   5.776  0.7080 -0.4458 -0.1274
18423THY    CA251032   0.371   6.104   5.642  0.1495  0.3041 -0.5377
18423THY    CP151033   0.440   6.017   5.534  0.1441 -0.5943 -0.0392
18423THY    HP151034   0.536   5.986   5.578  0.1403 -0.0801  0.6733
18423THY    CP251035   0.465   6.089   5.403  0.1993 -0.2346  0.0346
18423THY    HP251036   0.527   6.178   5.422  0.2628  2.9935 -0.5775
18423THY    HP351037   0.372   6.116   5.352 -0.9573  2.3235  1.2082
18423THY    HP451038   0.525   6.034   5.330 -1.7287 -0.8735 -1.3181
18423THY    CP351039   0.357   5.897   5.497 -0.0697  0.6335  0.8612
18423THY    HP551040   0.264   5.935   5.453  1.1649 -0.3475  2.8841
18423THY    HP651041   0.331   5.850   5.593 -0.9143  0.2941  0.6098
18423THY    HP751042   0.396   5.822   5.427 -2.5868 -1.3332  1.2733
18423THY    CA351043   0.281   6.205   5.604 -0.1677 -0.1013 -0.6278
18423THY    HA351044   0.269   6.222   5.497  1.9044 -0.6281 -2.0263
18423THY    CA451045   0.217   6.285   5.709  0.2676  0.1032  0.6845
18423THY    HA451046   0.135   6.352   5.682 -1.4997 -1.9325 -2.0407
18423THY    CA551047   0.234   6.245   5.841  1.1368 -0.0966 -0.5128
18423THY    CM151048   0.149   6.304   5.949 -0.1778  0.1659 -0.5589
18423THY    HM151049   0.069   6.372   5.918  2.1248  2.2019  3.5005
18423THY    HM251050   0.209   6.363   6.020  0.1008 -0.4654 -0.0638
18423THY    HM351051   0.097   6.221   5.998  0.1681 -0.4549 -1.1535
18423THY    CA651052   0.318   6.141   5.878  0.2485  0.4381 -0.5604
18423THY    HA651053   0.333   6.120   5.984  2.7129 -0.0204 -1.3761
18424THY      O51054   0.491   5.885   2.641 -0.6280 -0.3032  0.5412
18424THY     HO51055   0.478   5.926   2.554 -0.3944  0.2469  1.8505
18424THY    CA151056   0.605   5.937   2.689  0.3961 -0.1435 -0.4297
18424THY    CA251057   0.681   5.881   2.796  0.0472  0.1659 -0.2147
18424THY    CP151058   0.653   5.746   2.858  0.0091  0.3239 -0.4375
18424THY    HP151059   0.574   5.694   2.804  0.4000 -0.7646  0.0790
18424THY    CP251060   0.609   5.765   3.008 -0.1222  0.8687 -0.3777
18424THY    HP251061   0.660   5.856   3.042 -2.1329  1.1497  0.7038
18424THY    HP351062   0.639   5.679   3.069  2.8717 -0.0593 -0.0806
18424THY    HP451063   0.504   5.796   3.018  0.3344  0.1783  1.5288
18424THY    CP351064   0.777   5.662   2.846  0.1837  0.4684 -0.0285
18424THY    HP551065   0.751   5.562   2.884 -0.8781  1.8031  0.7234
18424THY    HP651066   0.862   5.704   2.900  0.3335  0.0276  0.2441
18424THY    HP751067   0.808   5.636   2.743 -0.0939  0.1489  0.8808
18424THY    CA351068   0.785   5.957   2.848 -0.2246  0.0368  0.1875
18424THY    HA351069   0.838   5.912   2.931  1.5618 -1.1442 -0.0008
18424THY    CA451070   0.810   6.086   2.796  0.7212 -0.2152  0.0665
18424THY    HA451071   0.888   6.150   2.836 -0.2625 -0.0510  1.2217
18424THY    CA551072   0.745   6.141   2.681  0.0824  0.1461 -0.0046
18424THY    CM151073   0.779   6.268   2.618 -0.2912 -0.2827  0.7187
18424THY    HM151074   0.755   6.348   2.688 -3.6443  1.8563 -1.9056
18424THY    HM251075   0.725   6.287   2.524 -1.6961  0.6114  1.2771
18424THY    HM351076   0.885   6.269   2.589  0.6943  3.0150  1.6792
18424THY    CA651077   0.634   6.064   2.637  0.6580  0.1842  0.1431
18424THY    HA651078   0.571   6.094   2.554 -0.9978  1.9099  1.6674
18425THY      O51079   2.027   3.564   3.994 -0.4341 -0.0731  0.2812
18425THY     HO51080   2.031   3.477   3.951  1.0962  0.0100  0.2764
18425THY    CA151081   2.153   3.598   4.031  0.1801  0.8913  0.1449
18425THY    CA251082   2.183   3.682   4.141  0.0958 -0.0937 -0.4959
18425THY    CP151083   2.076   3.728   4.238 -0.2897  0.2030  0.1765
18425THY    HP151084   1.979   3.679   4.226 -1.0293  2.4251  0.9824
18425THY    CP251085   2.060   3.881   4.239 -0.2668 -0.3882  0.9231
18425THY    HP251086   1.966   3.904   4.290 -0.7467  0.3916 -2.3619
18425THY    HP351087   2.039   3.913   4.136  0.6033 -0.5055  1.1418
18425THY    HP451088   2.151   3.940   4.256  0.3851  0.9012 -0.3737
18425THY    CP351089   2.115   3.686   4.387  0.2843  0.2148  0.2019
18425THY    HP551090   2.202   3.736   4.432 -1.1725  1.6535  1.5710
18425THY    HP651091   2.131   3.579   4.398 -0.8983 -0.3626 -0.0429
18425THY    HP751092   2.032   3.719   4.449 -1.1859 -1.0536 -0.9738
18425THY    CA351093   2.316   3.728   4.151  0.2121  0.5891 -0.0777
18425THY    HA351094   2.339   3.794   4.235  1.2528  1.4060 -1.4171
18425THY    CA451095   2.413   3.686   4.063 -0.1785 -0.7002  0.1175
18425THY    HA451096   2.512   3.729   4.076 -0.7866  0.0451  1.3683
18425THY    CA551097   2.381   3.595   3.968 -0.1075  0.6049 -0.0518
18425THY    CM151098   2.487   3.547   3.870 -0.0768  0.7845 -0.1256
18425THY    HM151099   2.588   3.573   3.905  0.6672 -0.2227 -1.5012
18425THY    HM251100   2.473   3.579   3.767 -0.0310  0.2422 -1.7737
18425THY    HM351101   2.488   3.437   3.874 -1.2802  1.9456 -0.1205
18425THY    CA651102   2.251   3.554   3.948 -0.3509  0.1425 -0.2274
18425THY    HA651103   2.223   3.482   3.871 -1.7262  0.2882  0.1205
18426THY      O51104   5.598   5.780   5.928  0.7008 -0.2278 -0.0512
18426THY     HO51105   5.683   5.816   5.898  0.2413 -0.7425  0.6503
18426THY    CA151106   5.617   5.653   5.895 -0.2740 -0.5641  0.4538
18426THY    CA251107   5.516   5.557   5.891  0.1517  0.6101  0.6182
18426THY    CP151108   5.370   5.607   5.885 -0.2562  0.4256 -0.1880
18426THY    HP151109   5.363   5.702   5.939  1.5536 -0.8176  0.7154
18426THY    CP251110   5.269   5.515   5.966 -0.1188 -0.2303  0.5581
18426THY    HP251111   5.249   5.417   5.921  2.0698  0.1081 -0.1042
18426THY    HP351112   5.172   5.565   5.981 -0.5428  3.3601 -1.1035
18426THY    HP451113   5.303   5.491   6.067 -1.0801  0.3005  1.3271
18426THY    CP351114   5.317   5.625   5.740 -0.0034 -0.4265  0.2530
18426THY    HP551115   5.363   5.704   5.681 -1.3178 -3.8318 -1.2983
18426THY    HP651116   5.209   5.639   5.729  0.0989 -1.5369  0.1914
18426THY    HP751117   5.331   5.534   5.680 -1.2446  1.8134 -1.5376
18426THY    CA351118   5.553   5.420   5.876 -0.7798 -0.2547  0.1825
18426THY    HA351119   5.476   5.344   5.862 -1.0020  2.2659 -0.1325
18426THY    CA451120   5.694   5.381   5.856  0.8316  0.2217 -0.4097
18426THY    HA451121   5.728   5.278   5.853  1.7925 -0.2823 -0.0950
18426THY    CA551122   5.791   5.487   5.852 -0.4418 -0.5491 -0.1775
18426THY    CM151123   5.936   5.464   5.822 -0.9921  0.4105 -0.0095
18426THY    HM151124   6.005   5.534   5.871  0.2446  0.8177 -1.4574
18426THY    HM251125   5.957   5.482   5.716 -2.2100  0.4557  1.9983
18426THY    HM351126   5.968   5.361   5.839  0.4638 -0.3536  0.2976
18426THY    CA651127   5.749   5.621   5.863 -0.3863 -0.4458  0.2717
18426THY    HA651128   5.819   5.703   5.856 -1.3857  1.9047  1.4487
18427THY      O51129   9.032   6.055   2.868  0.3744  0.2077 -0.6855
18427THY     HO51130   9.102   6.117   2.895 -2.3890 -0.0853  2.9032
18427THY    CA151131   8.985   6.110   2.757 -0.1163 -0.7569  0.6510
18427THY    CA251132   8.872   6.058   2.695  0.3986 -0.4713 -0.2565
18427THY    CP151133   8.810   5.930   2.756  0.2238  0.1010 -0.5053
18427THY    HP151134   8.826   5.929   2.865  1.5207 -0.0267  1.4551
18427THY    CP251135   8.870   5.806   2.692 -0.1310  0.5006  0.2824
18427THY    HP251136   8.979   5.805   2.680 -0.2756 -3.3759 -3.9771
18427THY    HP351137   8.831   5.786   2.591  1.1682  0.3657 -1.7482
18427THY    HP451138   8.848   5.714   2.748 -1.2082 -2.4155 -1.3783
18427THY    CP351139   8.658   5.917   2.740  0.0043  0.3139 -0.7873
18427THY    HP551140   8.637   5.917   2.632  0.9292  0.1205 -0.2731
18427THY    HP651141   8.598   5.990   2.796  1.7217  1.4138 -0.1580
18427THY    HP751142   8.626   5.816   2.770  2.4277 -0.1292 -1.7638
18427THY    CA351143   8.837   6.105   2.567  0.0944 -0.1560 -0.4662
18427THY    HA351144   8.756   6.051   2.517 -0.0243 -0.5712  0.0871
18427THY    CA451145   8.905   6.210   2.510 -0.7085 -0.0808 -0.4104
18427THY    HA451146   8.882   6.258   2.415 -0.1214 -0.2759 -0.5026
18427THY    CA551147   9.013   6.266   2.579 -0.5606  0.9216 -0.1905
18427THY    CM151148   9.102   6.368   2.518 -0.3040 -0.5007 -0.4299
18427THY    HM151149   9.048   6.461   2.501  1.7143  0.5618  1.0026
18427THY    HM251150   9.147   6.329   2.426  1.7259  1.0031 -1.8446
18427THY    HM351151   9.189   6.391   2.580  0.2208  0.2132 -3.7653
18427THY    CA651152   9.046   6.217   2.701  0.0931 -0.3253 -0.3690
18427THY    HA651153   9.135   6.257   2.748 -1.6928  1.7770  1.4702
18428THY      O51154   7.577   8.316   6.688  0.2153 -0.7271  0.5191
18428THY     HO51155   7.498   8.372   6.701 -0.0089 -0.7160  0.2023
18428THY    CA151156   7.664   8.366   6.784  0.7221 -0.3249 -0.3105
18428THY    CA251157   7.772   8.292   6.832 -0.3172 -1.0078 -0.8897
18428THY    CP151158   7.798   8.153   6.772  0.4254 -0.3316 -0.4081
18428THY    HP151159   7.761   8.133   6.671  1.3526 -0.6578 -0.5088
18428THY    CP251160   7.727   8.057   6.864 -1.1873 -0.2810 -0.6795
18428THY    HP251161   7.724   7.952   6.831 -0.5607 -1.9990 -0.1883
18428THY    HP351162   7.622   8.088   6.875 -1.3631  0.8725 -1.5995
18428THY    HP451163   7.766   8.057   6.966  0.9328 -1.0474 -1.4808
18428THY    CP351164   7.947   8.111   6.764  0.6062 -0.2854 -0.8097
18428THY    HP551165   8.001   8.170   6.689  2.2795  0.8130 -0.8845
18428THY    HP651166   7.952   8.008   6.728  0.7680  0.8395 -1.2100
18428THY    HP751167   8.000   8.116   6.859  0.6452 -0.2834 -1.2664
18428THY    CA351168   7.843   8.346   6.934 -0.4845 -0.2817  0.5645
18428THY    HA351169   7.920   8.289   6.984 -1.9617  0.7833 -0.5958
18428THY    CA451170   7.814   8.469   6.986  0.3990 -0.6627 -0.0374
18428THY    HA451171   7.871   8.506   7.071  0.9761 -0.7700 -0.6721
18428THY    CA551172   7.705   8.545   6.936 -0.2167  0.0307 -0.1529
18428THY    CM151173   7.674   8.676   6.989 -0.8866 -0.3164  0.3051
18428THY    HM151174   7.743   8.701   7.071 -0.3813 -0.1658 -1.4907
18428THY    HM251175   7.580   8.680   7.045 -1.0982 -0.5907 -0.6766
18428THY    HM351176   7.659   8.750   6.910 -2.8400 -1.6762 -1.4328
18428THY    CA651177   7.637   8.491   6.832 -0.4541  0.7484  0.3366
18428THY    HA651178   7.554   8.552   6.796 -0.5639  1.2860  0.5034
18429THY      O51179   5.787   3.856   2.717  0.3630  0.4374  1.0958
18429THY     HO51180   5.866   3.911   2.733  1.4863 -0.0869 -0.3052
18429THY    CA151181   5.802   3.767   2.610 -0.0571 -0.3564  0.3669
18429THY    CA251182   5.705   3.664   2.587  0.2401 -0.3511 -0.3557
18429THY    CP151183   5.569   3.656   2.660  0.1120  0.1834  0.2507
18429THY    HP151184   5.558   3.732   2.738 -0.3313  0.1824  0.1926
18429THY    CP251185   5.566   3.523   2.743 -0.0822 -0.3869  0.1728
18429THY    HP251186   5.644   3.508   2.819  0.1126 -0.5448  0.3694
18429THY    HP351187   5.571   3.438   2.673  0.3789  0.1846 -0.2759
18429THY    HP451188   5.474   3.522   2.802  0.0745 -0.1396  0.3197
18429THY    CP351189   5.461   3.672   2.547 -0.2930 -1.3525 -0.8650
18429THY    HP551190   5.364   3.659   2.596  0.3756  0.5147  0.6338
18429THY    HP651191   5.476   3.597   2.468  1.5375 -2.4276  0.5323
18429THY    HP751192   5.466   3.770   2.496  0.5170  0.6308  0.1837
18429THY    CA351193   5.737   3.569   2.490 -0.2041  0.0092 -0.2925
18429THY    HA351194   5.660   3.500   2.458 -1.7940  2.1800  0.3423
18429THY    CA451195   5.847   3.581   2.412 -0.2949  0.1827  0.2320
18429THY    HA451196   5.864   3.515   2.328  0.7633 -0.7359  1.5944
18429THY    CA551197   5.938   3.680   2.438  0.0513 -0.0236  0.3174
18429THY    CM151198   6.059   3.696   2.347  0.0308 -0.7532 -0.2434
18429THY    HM151199   6.142   3.733   2.408  0.2553  0.6693 -2.8459
18429THY    HM251200   6.043   3.772   2.269 -0.3219  1.3355  1.9596
18429THY    HM351201   6.086   3.603   2.296 -1.9818 -2.5527  0.0974
18429THY    CA651202   5.919   3.770   2.541 -0.1334  0.9613  0.6916
18429THY    HA651203   5.988   3.851   2.561  0.7232 -0.1270  0.2538
18430THY      O51204   4.001   3.420   2.227 -0.2093 -0.2666  0.0506
18430THY     HO51205   4.017   3.329   2.255  2.2863 -2.3475 -0.3042
18430THY    CA151206   4.084   3.498   2.306  0.9903 -0.2632  0.4067
18430THY    CA251207   4.073   3.640   2.302 -0.7978  0.6092 -0.0386
18430THY    CP151208   3.991   3.702   2.186 -0.7396  0.3481 -0.5100
18430THY    HP151209   4.008   3.641   2.097  0.9250  0.4879 -0.3010
18430THY    CP251210   4.043   3.845   2.146  0.3340  0.0738  0.4404
18430THY    HP251211   3.987   3.863   2.054 -0.8302  0.3568 -1.4989
18430THY    HP351212   4.149   3.845   2.117  0.3182  0.0162  0.4944
18430THY    HP451213   4.027   3.918   2.226  0.3373  1.3168 -0.8761
18430THY    CP351214   3.840   3.716   2.217 -1.0067  0.6426 -0.7659
18430THY    HP551215   3.784   3.755   2.131  0.3154  0.8578  1.8191
18430THY    HP651216   3.839   3.778   2.307  0.3905 -0.3262  0.7627
18430THY    HP751217   3.814   3.614   2.248  3.0497  1.9757 -1.6004
18430THY    CA351218   4.137   3.709   2.407  0.3134  0.1902  0.4943
18430THY    HA351219   4.131   3.817   2.415 -0.9627  0.7988  0.3950
18430THY    CA451220   4.208   3.635   2.502 -0.2145 -0.0906 -0.2140
18430THY    HA451221   4.261   3.692   2.578 -1.0112  1.3753 -1.3931
18430THY    CA551222   4.224   3.498   2.497  0.2746 -0.6582  0.5393
18430THY    CM151223   4.295   3.418   2.596 -0.0570  0.2929 -0.5322
18430THY    HM151224   4.388   3.472   2.618  1.1829 -1.6946 -1.7498
18430THY    HM251225   4.320   3.316   2.564 -2.2193  0.2248 -1.1022
18430THY    HM351226   4.241   3.424   2.691  1.2841  1.0025  2.3319
18430THY    CA651227   4.156   3.424   2.403 -0.8755  0.2049 -0.4554
18430THY    HA651228   4.165   3.315   2.401 -1.4097  0.4590 -0.5078
18431THY      O51229   4.577   5.351   3.202  0.9673 -0.2508  0.0060
18431THY     HO51230   4.642   5.355   3.274  1.8900 -0.9899 -1.0465
18431THY    CA151231   4.636   5.402   3.091  0.3930 -0.2401  0.6283
18431THY    CA251232   4.563   5.402   2.966 -0.5620 -0.7119 -0.0168
18431THY    CP151233   4.418   5.355   2.962  0.4718  0.2690  0.0337
18431THY    HP151234   4.383   5.300   3.050 -1.3424 -0.5115 -0.1429
18431THY    CP251235   4.415   5.243   2.850  0.3219 -0.1681 -0.3598
18431THY    HP251236   4.387   5.296   2.758 -1.1466  0.3277 -0.2405
18431THY    HP351237   4.327   5.181   2.868  0.1501 -1.5949 -0.5708
18431THY    HP451238   4.503   5.180   2.833  0.4036 -1.2707  0.0245
18431THY    CP351239   4.314   5.470   2.945 -0.2544  0.0067 -0.3311
18431THY    HP551240   4.328   5.551   3.018  1.0110  0.2049 -0.7071
18431THY    HP651241   4.206   5.453   2.947 -0.6824  2.3465  1.9881
18431THY    HP751242   4.332   5.525   2.851 -3.9846  0.0752  1.3465
18431THY    CA351243   4.631   5.440   2.854 -0.1164  0.6272 -0.2411
18431THY    HA351244   4.589   5.438   2.754  0.2092  0.4818 -0.0464
18431THY    CA451245   4.763   5.481   2.861 -0.8889 -0.1751  0.2376
18431THY    HA451246   4.811   5.528   2.776 -1.2351 -1.3337 -1.4141
18431THY    CA551247   4.826   5.479   2.979 -0.6027  0.1274  0.1742
18431THY    CM151248   4.971   5.515   2.974  0.4036  0.4701  0.7246
18431THY    HM151249   4.999   5.589   2.899 -1.4444 -1.7591 -0.7189
18431THY    HM251250   5.028   5.422   2.958  0.2667  0.6134  0.6146
18431THY    HM351251   5.008   5.554   3.070 -0.1655  1.2044 -0.4672
18431THY    CA651252   4.766   5.441   3.099  0.4778 -0.1211 -0.3640
18431THY    HA651253   4.823   5.425   3.190  0.8906 -0.2693  0.2451
18432THY      O51254   8.804   0.647   6.976 -0.9866  0.1280 -0.1550
18432THY     HO51255   8.727   0.692   7.015 -0.8207  2.3566 -1.6264
18432THY    CA151256   8.755   0.545   6.898 -0.0464  0.5524 -0.6673
18432THY    CA251257   8.790   0.539   6.762 -0.2271 -0.4217  0.4431
18432THY    CP151258   8.907   0.629   6.708  0.5188 -0.0179  0.0704
18432THY    HP151259   8.930   0.712   6.775 -1.8635  1.5133 -0.3968
18432THY    CP251260   8.859   0.693   6.574 -0.0276 -0.0518  0.0260
18432THY    HP251261   8.925   0.780   6.562  0.7445  2.4613 -0.1307
18432THY    HP351262   8.758   0.734   6.581  0.6112  0.0320  1.6508
18432THY    HP451263   8.868   0.616   6.496  0.8013  0.9146 -0.8957
18432THY    CP351264   9.045   0.556   6.690  0.6819  0.1556  0.6084
18432THY    HP551265   9.085   0.498   6.773  0.7504 -1.3214 -1.5718
18432THY    HP651266   9.117   0.637   6.671 -0.1550 -1.4526  1.0174
18432THY    HP751267   9.022   0.487   6.608 -0.7675  2.1970 -1.4313
18432THY    CA351268   8.724   0.440   6.679 -0.0448  0.0946  0.0993
18432THY    HA351269   8.751   0.418   6.576  0.5411  0.5080 -1.2359
18432THY    CA451270   8.618   0.360   6.733 -0.1850 -0.0380 -0.5187
18432THY    HA451271   8.573   0.277   6.680 -0.8700  0.4976 -0.4998
18432THY    CA551272   8.575   0.391   6.867  0.2990  0.4510 -0.3174
18432THY    CM151273   8.461   0.307   6.923  0.2284 -0.0539  0.8127
18432THY    HM151274   8.446   0.314   7.031 -1.7289 -0.1387 -0.8981
18432THY    HM251275   8.480   0.203   6.891  0.9399  2.0735  0.2439
18432THY    HM351276   8.372   0.336   6.866 -0.8387  0.7125 -0.7969
18432THY    CA651277   8.650   0.472   6.946  0.6005 -0.6204 -0.3311
18432THY    HA651278   8.615   0.485   7.048 -0.6758 -1.2577  1.7204
18433THY      O51279   5.788   2.261   6.452 -0.1129  0.1675  0.0621
18433THY     HO51280   5.760   2.177   6.492  1.4530 -0.4863 -0.8000
18433THY    CA151281   5.780   2.351   6.549 -0.4877 -0.4293  0.3568
18433THY    CA251282   5.810   2.494   6.530 -0.6050  0.2043  0.7567
18433THY    CP151283   5.858   2.542   6.388  0.8764 -0.0551  0.3095
18433THY    HP151284   5.887   2.451   6.335  0.9035  0.7240 -0.1388
18433THY    CP251285   5.962   2.651   6.388 -0.2970  0.9122  0.1240
18433THY    HP251286   5.983   2.660   6.281 -1.3662  0.6262 -0.5120
18433THY    HP351287   6.049   2.612   6.441 -0.3662  2.8513  2.4208
18433THY    HP451288   5.930   2.751   6.417  0.4971 -2.9638  1.6713
18433THY    CP351289   5.733   2.602   6.320 -0.1700  0.6770 -0.2755
18433THY    HP551290   5.707   2.699   6.364  0.8541 -1.1479  0.8963
18433THY    HP651291   5.655   2.525   6.319 -0.0381  1.8826 -0.4324
18433THY    HP751292   5.754   2.630   6.216  1.7257  0.0454 -3.4944
18433THY    CA351293   5.801   2.588   6.643  0.3075  0.1639  1.0595
18433THY    HA351294   5.805   2.696   6.634  0.3407  3.4519  1.4318
18433THY    CA451295   5.770   2.537   6.769 -0.3209 -0.1545  0.6171
18433THY    HA451296   5.765   2.601   6.857  2.9155  0.9807 -0.4775
18433THY    CA551297   5.762   2.398   6.785  0.7821  0.0861 -0.1656
18433THY    CM151298   5.726   2.345   6.923  0.2109  0.6054 -0.3077
18433THY    HM151299   5.762   2.243   6.939 -1.4780  1.2731 -0.8251
18433THY    HM251300   5.620   2.355   6.947  0.1577  0.2041  0.1190
18433THY    HM351301   5.777   2.405   6.999  1.1050  0.3503 -0.7278
18433THY    CA651302   5.760   2.307   6.678 -0.2113  0.1590 -0.1656
18433THY    HA651303   5.742   2.202   6.700  0.9759 -0.6002 -0.5384
18434THY      O51304   5.685   7.718   4.375  0.2659  0.0880 -0.2807
18434THY     HO51305   5.739   7.754   4.448 -1.6709  0.9195  1.1144
18434THY    CA151306   5.574   7.703   4.444  0.0460  0.1710  0.3911
18434THY    CA251307   5.452   7.644   4.394  0.1743 -0.7053  0.1047
18434THY    CP151308   5.457   7.588   4.254  0.7314  0.3190  0.1731
18434THY    HP151309   5.520   7.654   4.193  0.5991  0.6578  0.6220
18434THY    CP251310   5.318   7.592   4.183 -0.1602 -0.2395 -1.0697
18434THY    HP251311   5.277   7.693   4.184 -0.0735  0.4152 -1.0385
18434THY    HP351312   5.242   7.523   4.220 -0.2309 -0.0229 -0.8753
18434THY    HP451313   5.338   7.561   4.079 -2.4453 -1.6409  1.7077
18434THY    CP351314   5.510   7.446   4.248  0.5811 -0.4320  0.1781
18434THY    HP551315   5.458   7.394   4.330  1.9923  0.2113 -0.2712
18434THY    HP651316   5.616   7.432   4.275  0.7614 -1.4059 -0.4043
18434THY    HP751317   5.497   7.391   4.154  1.2887  0.4139 -1.5176
18434THY    CA351318   5.343   7.626   4.484 -0.9902  0.9671  0.3060
18434THY    HA351319   5.259   7.568   4.446  0.4508  0.6585 -1.6907
18434THY    CA451320   5.351   7.675   4.618  0.1162 -0.4414 -0.4766
18434THY    HA451321   5.269   7.663   4.688  0.3795 -0.0687 -0.1451
18434THY    CA551322   5.473   7.736   4.662  0.0343 -0.2425 -0.4145
18434THY    CM151323   5.477   7.786   4.803 -0.3667 -0.3814  0.5552
18434THY    HM151324   5.440   7.888   4.818  0.2113 -0.4439  0.7787
18434THY    HM251325   5.579   7.788   4.843 -0.2375 -0.7255  1.2629
18434THY    HM351326   5.428   7.716   4.872 -0.5009  0.3882  1.3870
18434THY    CA651327   5.581   7.746   4.577  0.6651  0.1107 -0.9201
18434THY    HA651328   5.665   7.803   4.617  0.5096 -1.7646  0.7111
18435THY      O51329   0.341   0.592   3.023 -0.2873 -0.3227 -0.2660
18435THY     HO51330   0.289   0.631   2.950  0.4408 -0.2319  0.9174
18435THY    CA151331   0.462   0.560   2.977  0.2298  0.0363 -0.6271
18435THY    CA251332   0.557   0.491   3.059  0.3126 -0.6686 -0.0290
18435THY    CP151333   0.510   0.429   3.191  0.0147  0.2178 -0.5148
18435THY    HP151334   0.424   0.482   3.235  0.6305  1.0949 -0.2046
18435THY    CP251335   0.607   0.441   3.313  0.3071 -0.6651 -0.1703
18435THY    HP251336   0.670   0.352   3.322  2.0253  0.2061  1.0471
18435THY    HP351337   0.550   0.456   3.405  2.6264  0.6795  1.0431
18435THY    HP451338   0.675   0.528   3.309  2.4002  0.0746 -1.6923
18435THY    CP351339   0.480   0.283   3.177  0.8312 -0.2612 -0.2090
18435THY    HP551340   0.395   0.257   3.113 -0.1347  1.0303 -0.3549
18435THY    HP651341   0.465   0.247   3.280  0.1299  0.3464  1.6755
18435THY    HP751342   0.571   0.244   3.131 -0.1567 -2.2102 -0.3373
18435THY    CA351343   0.690   0.487   3.016 -0.3798 -0.4064  0.6874
18435THY    HA351344   0.764   0.457   3.090  0.2222 -0.4423  2.0414
18435THY    CA451345   0.724   0.524   2.882 -0.1003  0.5588 -0.1527
18435THY    HA451346   0.828   0.509   2.852 -0.6024 -0.5207 -1.7280
18435THY    CA551347   0.626   0.589   2.803 -0.2728 -0.7144 -0.0346
18435THY    CM151348   0.652   0.640   2.663  0.4188 -0.2100 -0.7233
18435THY    HM151349   0.664   0.749   2.667  1.3421  3.4415 -0.8432
18435THY    HM251350   0.561   0.634   2.601 -0.1013  0.4122  0.3835
18435THY    HM351351   0.737   0.586   2.622  2.0013  3.7057 -1.4929
18435THY    CA651352   0.497   0.606   2.852  0.6397  0.2123  0.0776
18435THY    HA651353   0.424   0.659   2.790  1.6122 -0.5757  0.5298
18436THY      O51354   6.614   6.122   4.404 -0.7448  0.4834 -0.3826
18436THY     HO51355   6.603   6.097   4.497  1.4566  0.6011 -1.1221
18436THY    CA151356   6.495   6.133   4.352  0.3190 -0.6242 -1.0359
18436THY    CA251357   6.480   6.146   4.213 -0.2110 -0.4861 -0.0255
18436THY    CP151358   6.605   6.150   4.124 -0.0526  0.2442  0.4501
18436THY    HP151359   6.685   6.080   4.148  0.0762 -2.6580 -0.5541
18436THY    CP251360   6.666   6.289   4.129  0.4703 -0.0904 -0.2596
18436THY    HP251361   6.761   6.292   4.074 -0.3945 -1.7886 -1.9591
18436THY    HP351362   6.692   6.309   4.234  0.3287 -0.2479  0.8524
18436THY    HP451363   6.597   6.371   4.106  0.6563  0.0467 -0.0625
18436THY    CP351364   6.580   6.122   3.975 -0.3787  0.4557 -0.3980
18436THY    HP551365   6.676   6.108   3.924  0.4963  1.5621  1.2485
18436THY    HP651366   6.525   6.198   3.918  0.6517 -1.6731 -1.1821
18436THY    HP751367   6.521   6.031   3.958 -0.8961 -0.6647  0.1275
18436THY    CA351368   6.351   6.166   4.164  0.1124  0.0397  0.2182
18436THY    HA351369   6.317   6.167   4.060 -1.0145  0.3804 -0.5388
18436THY    CA451370   6.247   6.174   4.265 -0.9538  0.2076  0.2170
18436THY    HA451371   6.145   6.186   4.231 -0.5053 -1.3290 -0.1085
18436THY    CA551372   6.265   6.167   4.403  0.0082  0.0401  0.1578
18436THY    CM151373   6.149   6.159   4.497 -0.3405  0.5224  0.1345
18436THY    HM151374   6.120   6.256   4.540  1.5334  1.0319  0.5108
18436THY    HM251375   6.179   6.100   4.585  0.7937  0.0119 -0.0740
18436THY    HM351376   6.063   6.109   4.451 -1.2627 -1.0475  2.9475
18436THY    CA651377   6.392   6.140   4.443 -0.3245 -0.0103 -0.5635
18436THY    HA651378   6.410   6.138   4.550  2.0743 -0.2488  1.5296
18437THY      O51379   1.495   8.206   6.886  0.0012  0.8703 -0.0088
18437THY     HO51380   1.473   8.115   6.860  0.0603  0.8930 -0.0297
18437THY    CA151381   1.398   8.279   6.838  0.3997  0.2864  0.5666
18437THY    CA251382   1.428   8.411   6.789  0.0695 -0.0766  0.2308
18437THY    CP151383   1.575   8.453   6.786  0.5334  0.2325  0.1855
18437THY    HP151384   1.635   8.393   6.855 -1.2733  1.0436 -0.7633
18437THY    CP251385   1.599   8.605   6.821 -0.1141  0.2306 -0.1624
18437THY    HP251386   1.577   8.666   6.733 -1.9181 -0.9222 -2.3702
18437THY    HP351387   1.702   8.637   6.845  0.2606 -0.4767 -0.8078
18437THY    HP451388   1.540   8.628   6.911  2.3562  1.4789  1.8927
18437THY    CP351389   1.641   8.424   6.644  0.3427 -0.1243 -0.1661
18437THY    HP551390   1.642   8.317   6.621  0.7268 -3.1354  0.3862
18437THY    HP651391   1.746   8.455   6.638 -0.1287 -1.9169  1.2811
18437THY    HP751392   1.589   8.484   6.569 -0.8601  3.0067  3.0827
18437THY    CA351393   1.319   8.491   6.743 -0.4248  0.0883  0.2185
18437THY    HA351394   1.327   8.592   6.704  1.8134  0.3004  0.1627
18437THY    CA451395   1.192   8.426   6.732 -0.0389 -0.8480  0.0762
18437THY    HA451396   1.106   8.475   6.688 -0.9700 -2.1956 -2.6057
18437THY    CA551397   1.169   8.296   6.784  0.7644  0.8225  0.5436
18437THY    CM151398   1.030   8.243   6.768 -0.3994  0.7727  0.4198
18437THY    HM151399   0.960   8.290   6.837 -2.2771  0.8695 -2.2628
18437THY    HM251400   1.032   8.133   6.772  1.9721  1.3400  0.4282
18437THY    HM351401   0.996   8.267   6.666 -0.0887  0.3910 -0.7017
18437THY    CA651402   1.272   8.218   6.825 -0.2417 -0.7811  0.0244
18437THY    HA651403   1.260   8.118   6.866  2.3290 -0.7675 -0.3479
18438THY      O51404   7.245   1.270   3.888  0.6353  0.4947 -0.2399
18438THY     HO51405   7.194   1.335   3.938 -2.2053 -1.6306 -0.6347
18438THY    CA151406   7.146   1.197   3.835  1.2145  0.0775 -0.2923
18438THY    CA251407   7.164   1.061   3.794  0.4788 -0.7917 -0.1325
18438THY    CP151408   7.293   0.976   3.822 -0.4201 -0.1031  0.5700
18438THY    HP151409   7.360   1.015   3.899  0.9671 -0.4579 -1.0273
18438THY    CP251410   7.365   0.969   3.686 -0.1521  0.5381 -0.4258
18438THY    HP251411   7.297   0.919   3.616 -2.6206  2.3227  0.2234
18438THY    HP351412   7.462   0.921   3.704 -0.3780  1.6925 -0.4927
18438THY    HP451413   7.380   1.071   3.649 -2.0516 -0.3983 -0.4286
18438THY    CP351414   7.259   0.831   3.868 -0.0974  0.2847 -0.2415
18438THY    HP551415   7.202   0.849   3.959  0.2863  0.4740  0.0312
18438THY    HP651416   7.349   0.776   3.897 -0.3895  4.1123  1.0172
18438THY    HP751417   7.195   0.772   3.801 -3.0980  3.2122 -0.5775
18438THY    CA351418   7.056   0.993   3.746 -0.3681  0.5310 -0.0759
18438THY    HA351419   7.068   0.889   3.718 -1.2380  1.6486 -0.4994
18438THY    CA451420   6.932   1.058   3.742  0.4784  0.0614  0.3002
18438THY    HA451421   6.852   0.995   3.705  1.0179 -2.3693  0.9654
18438THY    CA551422   6.910   1.189   3.767 -0.1468  0.3160 -0.3890
18438THY    CM151423   6.770   1.248   3.756 -0.5472 -0.1595  0.6892
18438THY    HM151424   6.703   1.196   3.825 -1.8108 -1.0725  1.0750
18438THY    HM251425   6.728   1.217   3.660 -1.5750  0.8447 -1.2185
18438THY    HM351426   6.764   1.357   3.765 -0.1463 -0.8382  0.7748
18438THY    CA651427   7.019   1.262   3.823  0.6121 -0.4231 -0.3008
18438THY    HA651428   7.000   1.366   3.849 -2.7830 -0.6313 -0.7452
18439THY      O51429   2.413   4.498   3.990  0.2456  0.0749  0.3486
18439THY     HO51430   2.450   4.548   3.915 -2.1494 -1.5671 -0.1772
18439THY    CA151431   2.477   4.378   3.991 -0.6917  0.0663 -0.4082
18439THY    CA251432   2.418   4.263   4.047 -0.2181  0.4588  0.3235
18439THY    CP151433   2.289   4.285   4.131 -0.4945 -0.3563  0.0472
18439THY    HP151434   2.266   4.392   4.142 -0.2543 -0.9542  0.1627
18439THY    CP251435   2.296   4.215   4.274 -0.2478  0.4836  0.9420
18439THY    HP251436   2.219   4.246   4.346 -3.4029 -3.1884  2.5557
18439THY    HP351437   2.391   4.250   4.315  1.1472 -2.0999  0.4484
18439THY    HP451438   2.303   4.106   4.274  0.3551  2.1044  0.9639
18439THY    CP351439   2.163   4.221   4.065 -0.7435  0.3379  0.1944
18439THY    HP551440   2.080   4.224   4.137  0.2510  1.6231 -1.0577
18439THY    HP651441   2.186   4.114   4.055  0.5642  0.5206  0.4410
18439THY    HP751442   2.142   4.260   3.966  1.4430 -0.1639  0.2100
18439THY    CA351443   2.476   4.133   4.026 -0.3143 -0.7267 -0.1091
18439THY    HA351444   2.447   4.041   4.075 -1.5499 -1.0815  0.0715
18439THY    CA451445   2.602   4.135   3.971  0.0868  0.6837 -0.4598
18439THY    HA451446   2.652   4.044   3.938  1.4615 -3.0737  1.4384
18439THY    CA551447   2.656   4.251   3.909 -0.3347  1.1548 -0.0238
18439THY    CM151448   2.781   4.222   3.828  0.8839  0.3092 -0.6326
18439THY    HM151449   2.753   4.149   3.752 -0.1068 -1.1019  1.1297
18439THY    HM251450   2.863   4.184   3.891  1.0285 -0.3078 -1.3459
18439THY    HM351451   2.821   4.305   3.768 -1.3054 -2.6908 -1.5802
18439THY    CA651452   2.596   4.377   3.915 -0.3668 -0.0940  0.4653
18439THY    HA651453   2.626   4.474   3.877 -2.9236  3.7285  3.0522
18440THY      O51454   5.181   5.039   7.358 -0.1237  0.7038 -0.3694
18440THY     HO51455   5.221   4.971   7.302 -0.5048  2.2803 -1.9679
18440THY    CA151456   5.079   5.075   7.279 -0.2800 -0.6424  0.2746
18440THY    CA251457   4.953   5.115   7.332  0.2305  0.4034  0.2085
18440THY    CP151458   4.935   5.126   7.486  0.0716 -0.2612 -0.6009
18440THY    HP151459   5.026   5.094   7.539 -0.8891  0.7424 -1.7869
18440THY    CP251460   4.822   5.039   7.527 -0.4361  0.4297 -0.2697
18440THY    HP251461   4.803   5.054   7.634  1.5794  0.9213 -0.9259
18440THY    HP351462   4.851   4.933   7.517 -1.8729 -0.4545 -0.6070
18440THY    HP451463   4.738   5.051   7.457  0.6834 -0.7221  1.2641
18440THY    CP351464   4.906   5.268   7.516 -0.4848  0.3250 -0.1757
18440THY    HP551465   4.995   5.327   7.491 -0.8142  0.7172  0.5056
18440THY    HP651466   4.890   5.291   7.622  0.2770 -0.1627  3.2025
18440THY    HP751467   4.815   5.302   7.465 -1.3381  0.9712 -1.4050
18440THY    CA351468   4.858   5.158   7.242 -0.8009  0.0440  0.4400
18440THY    HA351469   4.757   5.182   7.274 -0.3134  2.6200 -0.6386
18440THY    CA451470   4.891   5.163   7.101 -0.7993 -0.4035 -0.1680
18440THY    HA451471   4.810   5.186   7.033 -0.3397 -1.1749 -0.7556
18440THY    CA551472   5.013   5.124   7.049 -0.1973  1.0085 -0.1720
18440THY    CM151473   5.054   5.129   6.895  0.0543 -0.3790 -0.1717
18440THY    HM151474   5.015   5.223   6.855 -0.0027  3.2580  1.5096
18440THY    HM251475   5.024   5.036   6.845 -0.1468 -0.7169  0.0734
18440THY    HM351476   5.163   5.129   6.895  0.1009  1.5972 -0.0653
18440THY    CA651477   5.108   5.090   7.146  0.4541  0.0301 -0.1283
18440THY    HA651478   5.211   5.089   7.114  0.2134 -0.7601 -0.2365
18441THY      O51479   6.928   1.234   6.714  0.2382 -0.7076  0.1785
18441THY     HO51480   6.983   1.184   6.652  2.0229  1.1416 -0.3026
18441THY    CA151481   7.017   1.322   6.772  0.5302 -0.4093 -0.0600
18441THY    CA251482   6.997   1.375   6.908 -1.1279 -0.8297  0.1923
18441THY    CP151483   6.877   1.341   6.986  0.2704 -0.2872  0.8861
18441THY    HP151484   6.859   1.237   6.956  0.3858 -1.1380  1.1100
18441THY    CP251485   6.763   1.428   6.941  0.5684 -0.4876 -0.5825
18441THY    HP251486   6.800   1.530   6.955 -2.6968  1.1500  0.5136
18441THY    HP351487   6.673   1.431   7.004 -0.5933 -2.1164  0.4857
18441THY    HP451488   6.745   1.424   6.833 -0.3596 -0.4017  0.7482
18441THY    CP351489   6.886   1.333   7.145 -0.5654 -0.0678 -0.4113
18441THY    HP551490   6.906   1.432   7.186 -0.1903 -0.1123 -0.4680
18441THY    HP651491   6.962   1.260   7.176  0.5282 -1.0453  0.2698
18441THY    HP751492   6.783   1.316   7.180 -1.1806 -1.9438 -0.8431
18441THY    CA351493   7.097   1.459   6.958  0.0485 -0.0197 -0.3536
18441THY    HA351494   7.084   1.495   7.060 -0.3116  0.0220 -0.6004
18441THY    CA451495   7.215   1.482   6.882  0.0624 -1.0135  0.8814
18441THY    HA451496   7.297   1.534   6.932  1.9154 -0.7063 -2.1075
18441THY    CA551497   7.228   1.437   6.758 -1.1320  0.1226 -0.1003
18441THY    CM151498   7.347   1.472   6.675 -0.1119 -0.0698 -0.5324
18441THY    HM151499   7.325   1.493   6.569  0.0231 -0.3688 -1.7990
18441THY    HM251500   7.415   1.389   6.652  0.2495  1.1820 -0.6022
18441THY    HM351501   7.399   1.559   6.716 -0.9248 -0.4864  0.1643
18441THY    CA651502   7.131   1.355   6.701  0.5403 -0.3880 -0.0385
18441THY    HA651503   7.139   1.316   6.600 -0.4376 -0.2423 -0.6411
18442THY      O51504   5.108   3.585   7.222  0.2306 -0.0121  0.1429
18442THY     HO51505   5.105   3.630   7.136  0.3931  0.1167  0.4012
18442THY    CA151506   5.054   3.464   7.195 -0.0741 -0.2275  0.1742
18442THY    CA251507   4.957   3.403   7.285  0.5017 -0.1643  0.5871
18442THY    CP151508   4.900   3.473   7.409  0.6865 -0.0623 -0.3413
18442THY    HP151509   4.851   3.563   7.369  1.2561 -0.4751 -0.2128
18442THY    CP251510   5.006   3.507   7.522  0.7178 -0.8893  0.2458
18442THY    HP251511   5.093   3.565   7.490  1.6778  0.7976 -0.1887
18442THY    HP351512   5.038   3.415   7.572 -2.7078  1.1690  0.0059
18442THY    HP451513   4.955   3.564   7.600 -2.6207 -1.0693 -2.2151
18442THY    CP351514   4.797   3.395   7.481  0.0525 -0.0385  0.6201
18442THY    HP551515   4.701   3.379   7.429 -0.3262 -0.1528  2.9522
18442THY    HP651516   4.767   3.432   7.580  2.1471  0.2106  1.7865
18442THY    HP751517   4.840   3.300   7.514  0.4368  0.4483  0.9570
18442THY    CA351518   4.905   3.285   7.234 -0.5789  0.2971 -0.1281
18442THY    HA351519   4.826   3.229   7.282  0.3656  0.0498 -1.7410
18442THY    CA451520   4.950   3.234   7.108  0.3109  0.3757 -0.1943
18442THY    HA451521   4.916   3.137   7.076  2.4983  0.4876 -1.0578
18442THY    CA551522   5.061   3.286   7.031  0.9454 -0.0654  0.2336
18442THY    CM151523   5.093   3.229   6.892  0.1657  0.1738  0.8696
18442THY    HM151524   5.180   3.283   6.852 -1.2395 -3.1392  0.9145
18442THY    HM251525   5.014   3.260   6.822 -1.0666  1.1121 -0.0549
18442THY    HM351526   5.105   3.121   6.895 -0.3844  2.1255  0.8317
18442THY    CA651527   5.109   3.405   7.082  0.5605  0.7248 -0.0501
18442THY    HA651528   5.190   3.457   7.031 -0.0184  0.1116  0.2641
18443THY      O51529   1.275   3.486   4.138 -0.5532 -0.3683 -0.4856
18443THY     HO51530   1.204   3.506   4.201 -1.0425 -0.6951 -1.1509
18443THY    CA151531   1.312   3.605   4.084  0.3859  0.0649 -0.0994
18443THY    CA251532   1.428   3.601   4.005 -0.2101 -0.1997 -0.0217
18443THY    CP151533   1.510   3.477   3.971 -0.6574  0.2384  0.0391
18443THY    HP151534   1.479   3.389   4.028 -0.2412  0.4230  0.0124
18443THY    CP251535   1.666   3.497   3.971  0.3945 -0.1137 -0.2602
18443THY    HP251536   1.719   3.429   4.039  1.4417  0.5072  1.1341
18443THY    HP351537   1.687   3.598   4.007  2.0797 -1.5562 -0.0695
18443THY    HP451538   1.707   3.474   3.872 -1.6263 -1.1526  0.4027
18443THY    CP351539   1.457   3.440   3.829  0.5545 -0.5673  0.8754
18443THY    HP551540   1.490   3.523   3.765  0.5366  1.6305  2.6838
18443THY    HP651541   1.348   3.435   3.838  0.6857  0.9070 -0.2765
18443THY    HP751542   1.492   3.343   3.791 -0.6346  2.4065 -0.8525
18443THY    CA351543   1.460   3.721   3.949  0.7324 -0.3504 -0.7059
18443THY    HA351544   1.538   3.725   3.873  0.0029 -1.1711 -1.5785
18443THY    CA451545   1.396   3.842   3.975  0.9274  0.6399  0.8949
18443THY    HA451546   1.422   3.934   3.922  0.0845 -0.8526  0.3043
18443THY    CA551547   1.291   3.840   4.066 -0.1276  0.3535 -0.3476
18443THY    CM151548   1.227   3.968   4.111  0.2830 -1.0552 -0.5052
18443THY    HM151549   1.276   4.062   4.084 -0.4925  1.1363  0.6104
18443THY    HM251550   1.218   3.973   4.220 -2.0518 -1.2501  1.6652
18443THY    HM351551   1.125   3.979   4.071 -0.4959  0.5033 -1.4887
18443THY    CA651552   1.235   3.722   4.112 -0.0863 -1.2027 -0.4132
18443THY    HA651553   1.139   3.737   4.160 -0.1495 -1.6284  0.5694
18444THY      O51554   5.800   2.530   2.778  0.2504 -0.2018 -0.2076
18444THY     HO51555   5.829   2.612   2.821  0.2938  0.3630 -0.5130
18444THY    CA151556   5.856   2.427   2.846  0.1631  0.0687 -0.0621
18444THY    CA251557   5.835   2.291   2.818  0.1981 -0.3424  0.0750
18444THY    CP151558   5.743   2.236   2.707 -0.0861 -0.7478  0.3228
18444THY    HP151559   5.678   2.317   2.671 -0.4598 -2.2930 -0.6108
18444THY    CP251560   5.650   2.123   2.753  0.0874  0.5053 -0.5916
18444THY    HP251561   5.588   2.154   2.839  2.6797  1.3959  2.7360
18444THY    HP351562   5.700   2.028   2.772 -1.3812  0.2932 -1.4441
18444THY    HP451563   5.578   2.104   2.673  0.0481 -0.1293  1.8266
18444THY    CP351564   5.823   2.179   2.585  0.2423  0.0881  0.3960
18444THY    HP551565   5.899   2.252   2.556  0.5477 -2.4244 -0.8039
18444THY    HP651566   5.758   2.160   2.498  1.2308 -0.1531 -2.4481
18444THY    HP751567   5.880   2.086   2.597 -1.8684  0.2891 -0.9437
18444THY    CA351568   5.909   2.195   2.891  0.1709 -0.6729 -0.7240
18444THY    HA351569   5.889   2.088   2.885 -0.6547  0.1641 -0.6321
18444THY    CA451570   5.996   2.234   2.993 -0.0060 -0.1788 -0.5210
18444THY    HA451571   6.034   2.160   3.062 -1.4089  1.8738  0.5721
18444THY    CA551572   6.023   2.372   3.013 -0.4870 -0.3145  0.1413
18444THY    CM151573   6.133   2.412   3.111  0.0904 -0.4669 -0.0329
18444THY    HM151574   6.103   2.366   3.206  0.2727 -1.1317 -1.5853
18444THY    HM251575   6.141   2.521   3.125 -0.8425  1.2431 -0.1402
18444THY    HM351576   6.230   2.375   3.078 -0.0337 -1.8479  0.7962
18444THY    CA651577   5.947   2.466   2.945  1.0473 -0.3905 -0.7035
18444THY    HA651578   5.965   2.573   2.958  2.8428 -1.8694 -0.7739
18445THY      O51579   7.643   3.943   6.530 -0.0551  0.4947 -0.5163
18445THY     HO51580   7.696   3.998   6.590  1.2694 -0.9221 -0.1516
18445THY    CA151581   7.640   3.821   6.592  0.2625  0.2327 -0.7129
18445THY    CA251582   7.584   3.698   6.538 -0.2797  0.1234 -0.2970
18445THY    CP151583   7.517   3.694   6.392 -0.1225 -0.1322  0.3098
18445THY    HP151584   7.506   3.799   6.363 -1.2767 -0.2144  0.1764
18445THY    CP251585   7.373   3.636   6.394  0.3118  0.3131 -0.1859
18445THY    HP251586   7.306   3.696   6.455  0.2055 -1.1580  1.2886
18445THY    HP351587   7.371   3.543   6.452 -4.2209 -2.6228 -2.2717
18445THY    HP451588   7.331   3.607   6.297  2.3208 -0.5540 -0.3679
18445THY    CP351589   7.599   3.624   6.294 -0.0597  1.1040 -0.6135
18445THY    HP551590   7.702   3.659   6.308 -0.4554  1.4843  0.4550
18445THY    HP651591   7.559   3.627   6.192  0.2255  0.9670 -1.2505
18445THY    HP751592   7.611   3.518   6.320  1.5641  0.0281 -0.7178
18445THY    CA351593   7.587   3.583   6.617  0.9370 -0.1442 -0.5665
18445THY    HA351594   7.550   3.491   6.573  0.0174  0.5377 -0.5309
18445THY    CA451595   7.646   3.588   6.745  0.7913  0.0577 -0.2171
18445THY    HA451596   7.643   3.504   6.814  0.3592 -1.2943 -1.3356
18445THY    CA551597   7.698   3.708   6.796 -0.7882 -0.3689 -0.0193
18445THY    CM151598   7.762   3.713   6.930 -0.3034 -0.7949 -0.5128
18445THY    HM151599   7.829   3.629   6.951  2.5050  1.7417  2.0558
18445THY    HM251600   7.687   3.698   7.009  1.7910  1.5429  0.4051
18445THY    HM351601   7.812   3.810   6.946 -0.6546  0.0171 -0.4562
18445THY    CA651602   7.709   3.820   6.717 -0.1156 -0.4633  0.6378
18445THY    HA651603   7.756   3.908   6.761  1.0874  1.2964 -0.8175
18446THY      O51604   3.039   8.385   4.564 -0.0391 -0.0979 -0.2292
18446THY     HO51605   3.131   8.417   4.571  1.1133 -2.0832 -2.7134
18446THY    CA151606   3.053   8.271   4.495  0.2257  0.5083 -0.1810
18446THY    CA251607   2.949   8.186   4.471  0.4744 -0.2345  0.5439
18446THY    CP151608   2.811   8.217   4.537 -0.1652 -0.8827  0.2169
18446THY    HP151609   2.800   8.321   4.572 -1.5056  0.7368 -0.4204
18446THY    CP251610   2.812   8.141   4.672  0.5043  0.7188  0.4240
18446THY    HP251611   2.806   8.033   4.657 -1.2680  0.5275  0.5108
18446THY    HP351612   2.722   8.164   4.730 -0.5072 -0.5355 -0.2415
18446THY    HP451613   2.900   8.177   4.726  1.6424 -0.1956 -0.9229
18446THY    CP351614   2.689   8.190   4.453 -0.2274  0.3922 -0.6140
18446THY    HP551615   2.590   8.218   4.492 -1.1953 -2.2122 -0.0955
18446THY    HP651616   2.679   8.083   4.434 -1.2862 -1.6385 -0.2173
18446THY    HP751617   2.690   8.238   4.354  0.1776 -0.2859 -1.9750
18446THY    CA351618   2.979   8.063   4.403 -0.9980  0.8238 -0.1223
18446THY    HA351619   2.900   7.990   4.385 -0.2072  1.4598 -1.1593
18446THY    CA451620   3.110   8.035   4.361 -0.3438  0.4545 -0.2635
18446THY    HA451621   3.135   7.947   4.303  0.7362 -0.1589  0.4178
18446THY    CA551622   3.213   8.127   4.375 -0.0248 -1.2240  0.2140
18446THY    CM151623   3.362   8.110   4.330 -0.6818 -0.1809 -0.4068
18446THY    HM151624   3.374   8.133   4.224  1.3094  0.1823  0.4272
18446THY    HM251625   3.380   8.002   4.340  1.0912 -0.4392 -0.1736
18446THY    HM351626   3.442   8.162   4.385  1.3786 -0.3381 -3.1802
18446THY    CA651627   3.181   8.249   4.440  0.4937  0.5432 -0.0558
18446THY    HA651628   3.255   8.329   4.441  0.4202 -1.1737  0.0709
18447THY      O51629   4.632   4.715   2.503  0.5643  0.2239 -0.1591
18447THY     HO51630   4.696   4.700   2.575  1.5074 -0.5438  0.1008
18447THY    CA151631   4.556   4.601   2.480  0.0247  0.1844 -0.5372
18447THY    CA251632   4.420   4.609   2.427 -0.1817  0.3268  0.9869
18447THY    CP151633   4.356   4.757   2.415  0.0623  0.2178  0.2465
18447THY    HP151634   4.433   4.833   2.399 -0.3737 -0.1971  0.6062
18447THY    CP251635   4.294   4.790   2.548  0.3908  0.0256  0.3241
18447THY    HP251636   4.251   4.890   2.531  0.4140  0.1376  0.3534
18447THY    HP351637   4.370   4.775   2.626  1.1130 -0.4394  1.4260
18447THY    HP451638   4.208   4.726   2.568  0.1441 -1.3311  0.1932
18447THY    CP351639   4.259   4.768   2.297  0.2360 -0.6998 -0.1927
18447THY    HP551640   4.174   4.702   2.316  0.0596 -1.7820 -0.2907
18447THY    HP651641   4.317   4.735   2.210  3.0081  0.7790  0.4891
18447THY    HP751642   4.209   4.864   2.277 -0.3152 -0.9175 -0.5184
18447THY    CA351643   4.351   4.484   2.405  0.3187 -0.2885 -0.0445
18447THY    HA351644   4.245   4.490   2.383  0.8651 -2.9671  1.3416
18447THY    CA451645   4.411   4.366   2.441 -0.7507  0.0066  0.3378
18447THY    HA451646   4.354   4.274   2.431 -0.5853  1.0569  0.1127
18447THY    CA551647   4.541   4.358   2.503  0.2082  0.5979  0.3930
18447THY    CM151648   4.605   4.229   2.543  0.3487  0.4579  0.5928
18447THY    HM151649   4.534   4.154   2.579  0.3154  1.3670  1.0564
18447THY    HM251650   4.663   4.221   2.635 -1.7433  1.9545  1.7882
18447THY    HM351651   4.661   4.188   2.458  0.1096 -0.1040  1.3980
18447THY    CA651652   4.613   4.479   2.520  1.5365 -0.5413 -0.0416
18447THY    HA651653   4.710   4.468   2.568  0.7402  1.7389  1.9447
18448THY      O51654   3.303   4.278   3.961 -0.3160 -0.2770 -0.4432
18448THY     HO51655   3.230   4.340   3.980 -0.4161  0.2149 -0.7054
18448THY    CA151656   3.426   4.344   3.979 -0.3220 -1.1504 -0.7396
18448THY    CA251657   3.536   4.281   4.042  0.4669 -0.4366 -0.6382
18448THY    CP151658   3.528   4.141   4.104  0.1324  0.5469 -0.1176
18448THY    HP151659   3.422   4.112   4.097 -0.1784 -1.2072  1.2985
18448THY    CP251660   3.568   4.133   4.251 -1.0833 -0.1089 -0.6345
18448THY    HP251661   3.555   4.033   4.294  0.6757  1.3659 -0.2911
18448THY    HP351662   3.505   4.199   4.311  1.3642  1.6071  0.3036
18448THY    HP451663   3.674   4.152   4.271 -0.2930 -2.5578 -1.9876
18448THY    CP351664   3.595   4.034   4.025  0.4205 -0.7941  0.0683
18448THY    HP551665   3.564   3.934   4.056  0.9811 -0.9837 -0.1705
18448THY    HP651666   3.703   4.040   4.047  0.2756 -0.0071 -0.1495
18448THY    HP751667   3.585   4.067   3.920  2.1069 -1.7123 -2.0744
18448THY    CA351668   3.666   4.346   4.045  2.1250 -0.2598 -0.0134
18448THY    HA351669   3.743   4.294   4.102  1.2942  0.5275 -0.4195
18448THY    CA451670   3.679   4.476   4.003  0.4127  0.1753  0.2157
18448THY    HA451671   3.776   4.525   4.001 -0.4045 -1.4658  1.8853
18448THY    CA551672   3.566   4.543   3.941  0.0731  0.1503 -0.1574
18448THY    CM151673   3.583   4.682   3.876  0.0549 -0.3007 -0.5214
18448THY    HM151674   3.671   4.737   3.912  0.6233  1.4300 -2.4477
18448THY    HM251675   3.496   4.746   3.897  0.5355 -2.3794  0.9314
18448THY    HM351676   3.606   4.671   3.770 -0.1466 -0.2102 -2.0044
18448THY    CA651677   3.442   4.472   3.936 -0.8370 -0.1316  0.1988
18448THY    HA651678   3.360   4.503   3.872 -0.9500 -1.4371 -2.4753
18449THY      O51679   3.928   6.735   5.745  0.3522 -0.0790 -0.4850
18449THY     HO51680   4.013   6.764   5.783  1.0197 -1.8871  0.0693
18449THY    CA151681   3.949   6.740   5.613  0.4237 -0.3688  0.5637
18449THY    CA251682   3.849   6.683   5.527 -1.1481 -0.1660 -0.1127
18449THY    CP151683   3.706   6.650   5.584 -0.1075 -0.6818  0.5319
18449THY    HP151684   3.700   6.661   5.692  1.0059 -0.6872  1.3364
18449THY    CP251685   3.680   6.500   5.567 -0.4821  0.1269 -0.3702
18449THY    HP251686   3.772   6.446   5.593  0.6285 -1.3346  0.7453
18449THY    HP351687   3.655   6.482   5.462  1.7177 -0.6423  0.6753
18449THY    HP451688   3.600   6.451   5.624 -0.5321 -1.0548 -1.7443
18449THY    CP351689   3.598   6.738   5.518 -0.5222 -0.4096 -0.4198
18449THY    HP551690   3.595   6.750   5.409  2.2223 -0.3956  1.1622
18449THY    HP651691   3.604   6.842   5.553 -0.8367  1.5464 -1.0312
18449THY    HP751692   3.496   6.710   5.545 -1.4822 -0.2781  2.8141
18449THY    CA351693   3.885   6.661   5.386  0.4054  0.1446  0.2279
18449THY    HA351694   3.817   6.616   5.314 -1.3335  2.3452 -0.8130
18449THY    CA451695   4.008   6.706   5.343 -0.4502  0.2189  0.2017
18449THY    HA451696   4.038   6.700   5.239  0.6061  0.5101  0.1345
18449THY    CA551697   4.099   6.762   5.432 -0.5193 -0.0653 -0.4267
18449THY    CM151698   4.231   6.809   5.376 -0.5088 -0.3658  0.2378
18449THY    HM151699   4.304   6.777   5.451 -0.2701 -0.8905 -0.4687
18449THY    HM251700   4.236   6.917   5.358  0.6482  0.6619  0.3801
18449THY    HM351701   4.266   6.760   5.285  0.3204 -0.1521  0.4268
18449THY    CA651702   4.071   6.778   5.566 -0.0979 -0.3552  0.3218
18449THY    HA651703   4.141   6.804   5.645 -1.3638  0.7009  0.6515
18450THY      O51704   3.903   6.214   3.586  0.6049 -0.2446  0.0413
18450THY     HO51705   3.885   6.122   3.612  0.5249 -2.0455 -0.4932
18450THY    CA151706   4.012   6.207   3.499  0.9637  0.0310 -0.3870
18450THY    CA251707   4.082   6.322   3.453 -0.1573 -0.1695  0.5954
18450THY    CP151708   4.034   6.458   3.473 -0.8969 -0.3174 -1.0596
18450THY    HP151709   3.960   6.466   3.554  0.8544  1.5909 -2.9176
18450THY    CP251710   3.971   6.515   3.342 -0.0411 -0.3104  0.1551
18450THY    HP251711   3.928   6.615   3.357  0.4525  1.9144  0.0828
18450THY    HP351712   3.894   6.440   3.317  0.5710  0.9698 -0.9398
18450THY    HP451713   4.047   6.511   3.263 -0.5185 -0.7933  0.4929
18450THY    CP351714   4.146   6.546   3.513 -0.7107  0.9107 -0.0087
18450THY    HP551715   4.195   6.509   3.604 -1.3548  0.7530 -1.2862
18450THY    HP651716   4.097   6.637   3.550 -1.9758  0.7506 -0.6133
18450THY    HP751717   4.217   6.580   3.437 -0.7464  0.9869  0.2390
18450THY    CA351718   4.200   6.303   3.367  0.4405 -0.0289 -0.6882
18450THY    HA351719   4.251   6.389   3.326  0.1441 -0.6549 -0.8099
18450THY    CA451720   4.235   6.168   3.332  0.0399 -0.3009 -0.1814
18450THY    HA451721   4.329   6.157   3.279  0.9239  1.2592 -0.5409
18450THY    CA551722   4.163   6.063   3.373  0.5477 -0.1374 -0.1185
18450THY    CM151723   4.210   5.926   3.350  0.1530 -0.5223  0.9031
18450THY    HM151724   4.131   5.871   3.298 -2.1381  0.6374  2.9138
18450THY    HM251725   4.233   5.871   3.441 -1.0359 -0.7537 -0.0275
18450THY    HM351726   4.287   5.911   3.273 -1.3497 -1.8860 -0.1540
18450THY    CA651727   4.053   6.082   3.463 -0.6416  0.5394 -0.2860
18450THY    HA651728   4.005   5.993   3.502 -2.6527  2.1598  1.4045
18451THY      O51729   3.498   3.319   4.268 -0.0404 -0.6910 -0.0659
18451THY     HO51730   3.426   3.256   4.284 -0.1412  0.6687  0.3614
18451THY    CA151731   3.573   3.255   4.187  0.2891 -0.0956  0.8134
18451THY    CA251732   3.706   3.296   4.166 -0.5325  0.9418 -0.1548
18451THY    CP151733   3.759   3.418   4.240  0.3851  0.6164 -0.4204
18451THY    HP151734   3.671   3.474   4.274 -0.4541  0.3781 -1.5569
18451THY    CP251735   3.830   3.511   4.150 -0.9406  0.1468  0.7055
18451THY    HP251736   3.759   3.525   4.068 -2.0614  0.6279 -1.6219
18451THY    HP351737   3.922   3.465   4.112 -1.6418 -0.5583 -0.1446
18451THY    HP451738   3.848   3.608   4.198  0.0155 -1.1980  1.2252
18451THY    CP351739   3.842   3.380   4.367  0.1378 -0.1074  0.6537
18451THY    HP551740   3.906   3.463   4.398  0.9624 -0.6996  0.2547
18451THY    HP651741   3.916   3.306   4.334 -0.1247  0.3265  0.1985
18451THY    HP751742   3.790   3.334   4.452  0.1970  0.7799  2.1857
18451THY    CA351743   3.784   3.216   4.085 -0.4218  0.5659  0.7390
18451THY    HA351744   3.889   3.237   4.071 -0.1529 -0.8654 -1.2416
18451THY    CA451745   3.731   3.104   4.025 -0.5377  0.1218  0.7431
18451THY    HA451746   3.792   3.044   3.959 -3.6352 -1.9093 -0.3621
18451THY    CA551747   3.598   3.071   4.042 -0.7026 -0.2652 -0.2489
18451THY    CM151748   3.543   2.947   3.977  0.0365 -1.1572 -0.2528
18451THY    HM151749   3.455   2.976   3.918 -1.8067  2.2671  1.7404
18451THY    HM251750   3.490   2.871   4.037  0.8192 -1.1240 -0.7832
18451THY    HM351751   3.607   2.893   3.906 -0.1314 -1.3104 -0.2514
18451THY    CA651752   3.519   3.147   4.124  0.2734  0.3985  0.5086
18451THY    HA651753   3.414   3.120   4.130  0.1036 -0.2418  1.0031
18452THY      O51754   3.800   3.540   3.457  0.2380  0.0762  0.7164
18452THY     HO51755   3.818   3.494   3.373  0.5982 -0.4598  1.7987
18452THY    CA151756   3.891   3.641   3.454  0.6633 -0.0161 -0.8657
18452THY    CA251757   3.942   3.695   3.570  0.3023  0.4233 -0.6785
18452THY    CP151758   3.892   3.646   3.713  0.0896  0.6932  0.1335
18452THY    HP151759   3.804   3.580   3.709  0.0095  2.0317  0.1209
18452THY    CP251760   3.841   3.754   3.798  0.4073 -0.8234 -0.1361
18452THY    HP251761   3.765   3.816   3.747  1.0799 -2.5256 -0.6706
18452THY    HP351762   3.917   3.823   3.838 -1.4833 -1.1356  2.2974
18452THY    HP451763   3.784   3.717   3.884  0.0043 -0.9980  0.0685
18452THY    CP351764   3.996   3.570   3.793  0.5638  0.0534 -0.5792
18452THY    HP551765   4.032   3.485   3.734 -1.9468  0.8494 -2.2963
18452THY    HP651766   3.956   3.557   3.894  0.6601  0.1845  0.1222
18452THY    HP751767   4.085   3.630   3.817 -0.0544  1.9668 -0.3634
18452THY    CA351768   4.030   3.806   3.562 -0.3620  0.2930  0.5951
18452THY    HA351769   4.068   3.852   3.653 -1.1327  0.6801  0.4742
18452THY    CA451770   4.061   3.858   3.437 -0.3232 -0.0213 -0.8005
18452THY    HA451771   4.124   3.946   3.424 -1.1944 -0.9739 -0.3035
18452THY    CA551772   4.009   3.806   3.326  0.0116 -0.1304 -0.7610
18452THY    CM151773   4.018   3.872   3.192 -0.0733  0.2915  0.4686
18452THY    HM151774   3.978   3.808   3.113 -0.3124  0.5104  0.3485
18452THY    HM251775   4.116   3.915   3.169  0.5807  0.5327 -0.8484
18452THY    HM351776   3.942   3.951   3.179 -0.8332 -2.0596 -0.5539
18452THY    CA651777   3.930   3.695   3.336  0.1329  0.0251  0.4717
18452THY    HA651778   3.886   3.657   3.244  1.3054  0.1237 -1.2307
18453THY      O51779   0.627   6.635   3.462  0.2708 -0.1373 -0.2808
18453THY     HO51780   0.698   6.590   3.511  2.2525 -2.7623 -0.2686
18453THY    CA151781   0.689   6.677   3.351 -0.1210  0.8085 -0.4487
18453THY    CA251782   0.631   6.774   3.257  1.0155 -0.0362  0.0920
18453THY    CP151783   0.488   6.828   3.289 -0.1484  0.4005  0.0597
18453THY    HP151784   0.418   6.745   3.307 -1.9676 -2.6152  0.7569
18453THY    CP251785   0.417   6.888   3.173 -0.5485 -0.4849  0.4707
18453THY    HP251786   0.473   6.967   3.122 -1.0829  1.5999  2.2739
18453THY    HP351787   0.316   6.923   3.198 -0.1906 -0.4879  1.5366
18453THY    HP451788   0.404   6.806   3.100  1.0059  0.2621 -0.4964
18453THY    CP351789   0.481   6.921   3.405 -0.2222 -0.4546  0.0499
18453THY    HP551790   0.557   6.919   3.484 -1.3538  0.6619 -1.4882
18453THY    HP651791   0.379   6.908   3.444  0.7527  2.1304 -0.3935
18453THY    HP751792   0.476   7.024   3.369 -4.1374  1.2514  0.6260
18453THY    CA351793   0.709   6.820   3.146  0.1544  0.3298 -0.0443
18453THY    HA351794   0.673   6.899   3.080 -0.3841  2.0013  1.1675
18453THY    CA451795   0.836   6.771   3.139 -0.4871  0.6471 -0.2365
18453THY    HA451796   0.895   6.808   3.056  1.2446  1.5817 -0.8068
18453THY    CA551797   0.895   6.684   3.230 -0.1553 -1.0071  0.2100
18453THY    CM151798   1.036   6.639   3.215 -0.5648  0.3900 -0.5210
18453THY    HM151799   1.066   6.661   3.112  1.9834  1.3404  0.8362
18453THY    HM251800   1.048   6.530   3.229 -1.8006 -0.5857 -0.8085
18453THY    HM351801   1.107   6.683   3.286 -0.2074  0.9636 -1.9543
18453THY    CA651802   0.820   6.642   3.335  0.5452 -0.2453  0.3596
18453THY    HA651803   0.865   6.569   3.403 -3.3915  0.1075 -2.0710
18454THY      O51804   2.408   5.900   4.604  0.2750 -0.0946 -0.2509
18454THY     HO51805   2.353   5.837   4.654  0.4053  0.9056  0.4070
18454THY    CA151806   2.525   5.832   4.590 -0.0189 -0.0757 -0.5975
18454THY    CA251807   2.654   5.886   4.568 -0.0840 -0.5680  0.5988
18454THY    CP151808   2.665   6.043   4.560 -0.0579 -0.2367 -0.7074
18454THY    HP151809   2.570   6.098   4.561  0.0884 -2.5460 -0.2888
18454THY    CP251810   2.751   6.090   4.438 -0.2377 -0.1078  0.5951
18454THY    HP251811   2.736   6.012   4.363  0.4172  1.0751 -0.6980
18454THY    HP351812   2.857   6.092   4.466  0.1295 -0.9825 -2.2401
18454THY    HP451813   2.726   6.192   4.407  1.4957  0.2015  1.1497
18454THY    CP351814   2.725   6.090   4.694 -0.4309  0.1946 -0.5467
18454THY    HP551815   2.832   6.069   4.684 -0.7859  0.0552 -2.5330
18454THY    HP651816   2.677   6.026   4.769  2.2308  0.9516 -1.7716
18454THY    HP751817   2.695   6.192   4.721  0.6459  0.9590 -0.4256
18454THY    CA351818   2.764   5.799   4.554 -0.7767 -0.1614 -0.0237
18454THY    HA351819   2.863   5.835   4.530 -0.9158 -1.4312 -0.4130
18454THY    CA451820   2.749   5.657   4.549  0.4165 -0.7171  0.4809
18454THY    HA451821   2.834   5.593   4.530 -0.3296  0.3949 -0.8774
18454THY    CA551822   2.618   5.600   4.567 -0.0966 -0.0509  0.0797
18454THY    CM151823   2.588   5.455   4.585  0.3380  0.1492 -0.5243
18454THY    HM151824   2.623   5.400   4.497  0.4284  0.9553 -1.7861
18454THY    HM251825   2.482   5.431   4.599  0.0961  1.3758  1.0618
18454THY    HM351826   2.647   5.430   4.674  0.5913  0.5271  1.2721
18454THY    CA651827   2.510   5.692   4.588  0.2269  0.1312  0.5094
18454THY    HA651828   2.411   5.652   4.605 -0.4239  0.5701  2.1956
18455THY      O51829   9.124   5.502   5.717 -0.0530 -0.0365  0.0450
18455THY     HO51830   9.066   5.446   5.662 -0.1118 -0.1555  0.2240
18455THY    CA151831   9.092   5.625   5.676 -0.3457  0.0243  0.2516
18455THY    CA251832   9.137   5.741   5.749 -0.8778  0.3974 -0.1704
18455THY    CP151833   9.224   5.732   5.865 -0.4857  0.3278 -0.0538
18455THY    HP151834   9.290   5.645   5.858  0.2458  1.8686  0.3349
18455THY    CP251835   9.125   5.720   5.988 -0.2623  0.4398 -0.3797
18455THY    HP251836   9.064   5.629   5.985 -0.1977  0.8308 -0.4375
18455THY    HP351837   9.046   5.796   5.989 -0.7567  1.2419 -0.8951
18455THY    HP451838   9.172   5.724   6.087 -2.9058  1.7156  2.0429
18455THY    CP351839   9.331   5.845   5.883 -0.5840  0.6228 -0.7668
18455THY    HP551840   9.279   5.942   5.882 -2.7159 -0.2864 -1.8718
18455THY    HP651841   9.397   5.850   5.795 -0.1291  0.7644 -3.3029
18455THY    HP751842   9.381   5.835   5.980  0.7234  0.3245  1.8069
18455THY    CA351843   9.092   5.864   5.704  0.2466 -0.1717  0.4409
18455THY    HA351844   9.116   5.956   5.757  2.7356 -0.6297  0.1064
18455THY    CA451845   9.002   5.866   5.594  0.2603 -0.0171  0.9407
18455THY    HA451846   8.973   5.962   5.551 -1.7041 -0.7102  0.0979
18455THY    CA551847   8.966   5.753   5.525 -0.6369  0.1861 -0.2615
18455THY    CM151848   8.865   5.756   5.420  0.3312  0.2200  0.4981
18455THY    HM151849   8.883   5.674   5.349 -0.8768 -3.2013  2.9638
18455THY    HM251850   8.870   5.849   5.362  0.1098  1.4660  1.3122
18455THY    HM351851   8.764   5.737   5.457  0.2322 -0.5743 -0.6451
18455THY    CA651852   9.005   5.630   5.568  0.1656 -0.3041  0.8129
18455THY    HA651853   8.966   5.541   5.520  1.9052  2.0323 -1.3714
18456THY      O51854   2.059   6.362   2.375 -0.1903  0.0359 -0.1802
18456THY     HO51855   1.991   6.404   2.320 -0.5103 -1.3149 -2.2983
18456THY    CA151856   2.144   6.286   2.296 -0.6386 -0.3727 -0.5815
18456THY    CA251857   2.225   6.190   2.359  0.0609  0.3341  0.2371
18456THY    CP151858   2.216   6.156   2.509  0.0458  0.4156 -0.0171
18456THY    HP151859   2.142   6.222   2.556  1.4610  2.2621  0.3377
18456THY    CP251860   2.341   6.190   2.593 -0.0402  0.2634  0.1568
18456THY    HP251861   2.315   6.183   2.699 -0.5769  0.4183  3.1862
18456THY    HP351862   2.379   6.289   2.565  0.1056  0.5799  0.1919
18456THY    HP451863   2.417   6.115   2.568 -1.0551 -0.1575 -0.7563
18456THY    CP351864   2.175   6.005   2.520  0.3678 -0.3778 -0.2180
18456THY    HP551865   2.168   5.983   2.627  1.5048  0.1515  1.7358
18456THY    HP651866   2.250   5.932   2.486 -0.0189  1.1409 -1.3672
18456THY    HP751867   2.084   5.994   2.460 -0.4092  0.4214  1.5686
18456THY    CA351868   2.326   6.127   2.282 -0.5058  0.3520 -1.0548
18456THY    HA351869   2.397   6.062   2.332  1.8756 -0.4407  0.7806
18456THY    CA451870   2.341   6.169   2.149 -0.1397  0.0514  0.5321
18456THY    HA451871   2.413   6.125   2.079 -2.1094 -2.4198  1.0195
18456THY    CA551872   2.259   6.266   2.088  0.8601 -0.2653  0.4765
18456THY    CM151873   2.276   6.309   1.947 -0.0899 -0.5737 -0.1041
18456THY    HM151874   2.177   6.311   1.900 -0.0498 -0.6436  0.3927
18456THY    HM251875   2.345   6.234   1.907 -1.9892 -0.8939 -1.7659
18456THY    HM351876   2.315   6.412   1.944 -0.5853 -0.8989  0.0808
18456THY    CA651877   2.153   6.319   2.162 -0.2466  0.0127 -0.1793
18456THY    HA651878   2.093   6.396   2.115 -1.1312 -1.2671 -1.6008
18457THY      O51879   8.064   3.189   4.078  0.4588  0.4928 -0.3277
18457THY     HO51880   8.010   3.119   4.118 -1.7938  2.1533  2.1253
18457THY    CA151881   8.000   3.311   4.104 -0.0405  0.1437  1.1865
18457THY    CA251882   8.029   3.431   4.040  0.2957  0.0034 -0.0926
18457THY    CP151883   8.139   3.443   3.940 -0.8084 -0.3366  0.4237
18457THY    HP151884   8.181   3.343   3.921 -0.1861  1.1424  0.3791
18457THY    CP251885   8.254   3.536   3.991 -0.4267  0.2620 -0.7733
18457THY    HP251886   8.276   3.506   4.094  0.0641  0.5248  0.3986
18457THY    HP351887   8.214   3.639   3.996  0.6670  0.8093 -0.3600
18457THY    HP451888   8.349   3.515   3.942  0.1226  1.5385 -1.3333
18457THY    CP351889   8.099   3.489   3.802  0.4360 -0.1464  0.5029
18457THY    HP551890   8.072   3.596   3.806  4.0951  1.3376  1.5274
18457THY    HP651891   8.015   3.429   3.765  1.6288 -0.1963 -1.2006
18457THY    HP751892   8.180   3.477   3.729  0.1999 -0.3548  0.1822
18457THY    CA351893   7.959   3.544   4.080  0.0994 -1.2546 -1.0435
18457THY    HA351894   7.992   3.642   4.048  0.6598  0.6180 -0.5784
18457THY    CA451895   7.853   3.532   4.171  0.2153  0.5849  0.0862
18457THY    HA451896   7.798   3.620   4.202 -1.4835 -0.3837 -0.6004
18457THY    CA551897   7.824   3.411   4.236 -0.5076  0.6306 -0.3147
18457THY    CM151898   7.721   3.402   4.346 -0.1322  0.2200  0.0808
18457THY    HM151899   7.627   3.396   4.290  0.1356 -0.5237  2.0394
18457THY    HM251900   7.720   3.493   4.407 -0.0933  1.7446 -0.9056
18457THY    HM351901   7.738   3.308   4.401 -0.7231 -3.9813 -2.7665
18457THY    CA651902   7.899   3.303   4.200 -0.1036  0.3745 -0.5837
18457THY    HA651903   7.878   3.209   4.251 -0.0060  1.0963 -0.2200
18458THY      O51904   1.003   2.094   5.101 -0.0283  0.0496 -0.5231
18458THY     HO51905   1.024   2.019   5.043  0.1905 -0.5565 -0.0076
18458THY    CA151906   0.916   2.061   5.192  0.6864  0.0049  0.0862
18458THY    CA251907   0.912   2.132   5.314 -0.0017 -0.1338  0.1971
18458THY    CP151908   1.014   2.238   5.356  0.3051 -0.9955 -0.1572
18458THY    HP151909   1.061   2.269   5.262  0.0653 -1.4698 -1.1802
18458THY    CP251910   1.116   2.167   5.443 -0.6722  0.3914  0.2605
18458THY    HP251911   1.147   2.081   5.383 -2.6379 -0.9218  0.4087
18458THY    HP351912   1.091   2.123   5.541  3.3032  0.2814 -2.8558
18458THY    HP451913   1.207   2.226   5.456 -0.8805  1.9615  0.2714
18458THY    CP351914   0.947   2.356   5.420  0.5797 -0.6495 -0.0572
18458THY    HP551915   1.019   2.431   5.454 -1.4245  1.6267  0.9636
18458THY    HP651916   0.894   2.332   5.513  1.5666  1.0271  3.6285
18458THY    HP751917   0.874   2.400   5.351  1.3645 -1.7092 -0.3842
18458THY    CA351918   0.820   2.087   5.416 -0.0944  0.8609 -0.1970
18458THY    HA351919   0.830   2.119   5.520  1.3762  0.4721  0.7313
18458THY    CA451920   0.717   2.006   5.372  0.5985  0.6080  0.3061
18458THY    HA451921   0.635   1.981   5.439 -0.9065 -0.4788  2.0710
18458THY    CA551922   0.724   1.937   5.249  0.3233 -0.0845 -0.0251
18458THY    CM151923   0.622   1.835   5.204 -0.2772  0.3208  0.0133
18458THY    HM151924   0.523   1.881   5.216  0.7168  0.9956  2.0955
18458THY    HM251925   0.618   1.742   5.262 -0.6629 -0.4763 -0.4815
18458THY    HM351926   0.631   1.807   5.099 -0.4623  0.6964 -1.5771
18458THY    CA651927   0.821   1.968   5.158 -0.1873 -0.5066  0.3375
18458THY    HA651928   0.820   1.922   5.060 -1.9460 -0.1753 -0.3748
18459THY      O51929   0.574   2.574   1.696 -0.5622 -0.3948 -0.1322
18459THY     HO51930   0.521   2.555   1.617  0.0113 -1.1475  1.2421
18459THY    CA151931   0.489   2.623   1.780 -0.4892 -0.0368 -0.3357
18459THY    CA251932   0.509   2.737   1.863 -0.3171  0.4775  0.0557
18459THY    CP151933   0.645   2.814   1.849 -0.4956 -0.5607  0.2250
18459THY    HP151934   0.732   2.774   1.797  0.9905  1.0941  1.1791
18459THY    CP251935   0.694   2.842   1.992  0.3312  0.1635 -0.9453
18459THY    HP251936   0.693   2.748   2.048 -0.5032  2.2840  0.2452
18459THY    HP351937   0.630   2.912   2.048  2.0216  1.1439 -0.1406
18459THY    HP451938   0.796   2.880   1.982 -0.4454  1.3556  1.7497
18459THY    CP351939   0.610   2.943   1.776  0.3322 -0.4781 -0.2170
18459THY    HP551940   0.613   2.921   1.668 -0.5740 -0.8577  1.3503
18459THY    HP651941   0.680   3.021   1.808  0.4288 -1.4812  0.1192
18459THY    HP751942   0.514   2.976   1.817  0.7411  0.4739 -0.1834
18459THY    CA351943   0.406   2.778   1.949  0.5940  0.1912  0.7337
18459THY    HA351944   0.402   2.874   2.000  0.7488 -0.3029  1.0013
18459THY    CA451945   0.290   2.693   1.959  0.0580 -0.2657 -0.3123
18459THY    HA451946   0.216   2.725   2.031  1.2618  0.1701  1.6855
18459THY    CA551947   0.276   2.585   1.882 -0.3521 -0.8186  0.2077
18459THY    CM151948   0.154   2.501   1.893 -0.2877  0.0460 -0.2307
18459THY    HM151949   0.063   2.549   1.856 -1.4064  2.6754 -0.1542
18459THY    HM251950   0.144   2.478   2.000  0.9218 -0.0518 -1.3021
18459THY    HM351951   0.160   2.406   1.839  0.9992 -0.9766  0.4090
18459THY    CA651952   0.368   2.552   1.788 -0.1011 -0.6672  0.1145
18459THY    HA651953   0.338   2.466   1.728 -0.2603  1.1704 -1.1801
18460THY      O51954   5.610   3.908   3.780 -0.4615  0.4429 -0.3303
18460THY     HO51955   5.587   3.845   3.850  0.3443  0.5235 -0.5435
18460THY    CA151956   5.571   3.848   3.672 -1.4089  0.6722  0.3492
18460THY    CA251957   5.606   3.892   3.545 -0.3567  0.4417 -0.3615
18460THY    CP151958   5.703   4.014   3.525  0.4979  0.7093  1.2819
18460THY    HP151959   5.722   4.064   3.621  0.7216  0.2606  2.0805
18460THY    CP251960   5.641   4.137   3.443  0.7198  0.3351 -0.6331
18460THY    HP251961   5.535   4.150   3.467  0.7829  0.0736  0.4726
18460THY    HP351962   5.658   4.110   3.339  0.3123  0.4423 -1.3314
18460THY    HP451963   5.698   4.228   3.466 -1.2182  0.3720  0.6233
18460THY    CP351964   5.835   3.981   3.452  0.2059  0.3412 -0.5445
18460THY    HP551965   5.813   3.930   3.358  0.6947  1.4515 -2.9178
18460THY    HP651966   5.896   3.926   3.525  1.0980  0.7762  0.9503
18460THY    HP751967   5.897   4.070   3.432 -1.2134 -1.5150  0.0789
18460THY    CA351968   5.548   3.823   3.437 -0.3163 -1.0042 -0.4058
18460THY    HA351969   5.561   3.869   3.340 -0.1458 -0.0832  1.5939
18460THY    CA451970   5.470   3.712   3.454  0.3237 -0.0216  0.2984
18460THY    HA451971   5.441   3.659   3.364 -1.1998 -0.6522  2.0806
18460THY    CA551972   5.439   3.662   3.576 -0.6436 -0.0125 -0.1178
18460THY    CM151973   5.354   3.538   3.591 -0.2686 -0.4981  0.1257
18460THY    HM151974   5.409   3.457   3.543 -0.9400 -1.4415  0.2101
18460THY    HM251975   5.253   3.542   3.548  0.1686 -1.4698  1.5976
18460THY    HM351976   5.343   3.517   3.698  1.9139 -0.1376  0.5829
18460THY    CA651977   5.491   3.732   3.686  0.0166  0.4514 -0.1861
18460THY    HA651978   5.467   3.696   3.786  0.4373 -0.4164 -3.1119
18461THY      O51979   0.682   1.227   7.789 -0.4746  0.2097  0.0659
18461THY     HO51980   0.608   1.165   7.800 -0.0607  2.1049 -0.1405
18461THY    CA151981   0.667   1.284   7.668 -0.0419  0.2178 -0.5524
18461THY    CA251982   0.742   1.404   7.635 -0.7710 -0.0798  0.6342
18461THY    CP151983   0.827   1.484   7.740 -0.1774  0.5625 -0.4258
18461THY    HP151984   0.834   1.434   7.837  0.0318  1.3712  1.1347
18461THY    CP251985   0.770   1.625   7.753 -0.4721 -0.8082  0.6301
18461THY    HP251986   0.838   1.683   7.817 -0.3756  0.0445 -0.3965
18461THY    HP351987   0.671   1.620   7.799 -0.4965 -0.9988 -1.2231
18461THY    HP451988   0.753   1.680   7.660 -0.2915  0.0745  2.2666
18461THY    CP351989   0.972   1.508   7.683  0.6142  0.3029  0.5664
18461THY    HP551990   1.027   1.413   7.680 -0.5614  3.4844 -0.3211
18461THY    HP651991   1.026   1.567   7.759  0.0774  1.4229 -0.3522
18461THY    HP751992   0.966   1.561   7.587  0.5839 -1.2444 -2.0987
18461THY    CA351993   0.713   1.463   7.508  0.3248 -0.2030 -0.1405
18461THY    HA351994   0.766   1.552   7.474  1.4754 -1.1240 -1.1457
18461THY    CA451995   0.618   1.397   7.422 -0.2064  0.0655 -0.1547
18461THY    HA451996   0.594   1.441   7.326 -0.7647 -0.6044 -1.8462
18461THY    CA551997   0.558   1.281   7.457 -0.2344  0.0265 -0.3247
18461THY    CM151998   0.457   1.216   7.364 -1.2206  0.1581 -0.3127
18461THY    HM151999   0.481   1.226   7.258 -0.8802  0.3742  1.6222
18461THY    HM252000   0.359   1.263   7.380 -0.4102  1.2848  1.0951
18461THY    HM352001   0.433   1.113   7.392  1.5520 -1.7366 -1.5854
18461THY    CA652002   0.577   1.226   7.582 -0.2047 -0.0190 -0.7708
18461THY    HA652003   0.528   1.136   7.617  0.5488  1.3559 -0.6730
18462THY      O52004   6.149   5.663   7.478  0.5333 -0.4044 -0.0740
18462THY     HO52005   6.209   5.596   7.442 -0.5277  2.0048 -2.4818
18462THY    CA152006   6.101   5.721   7.368  0.3360  0.2749 -0.1060
18462THY    CA252007   5.984   5.803   7.371 -0.1393 -0.2077 -0.6131
18462THY    CP152008   5.910   5.836   7.500 -0.8142 -0.0960  0.0904
18462THY    HP152009   5.969   5.828   7.592  0.8314 -0.8371  2.5281
18462THY    CP252010   5.797   5.732   7.535 -0.3318  0.6565 -0.2611
18462THY    HP252011   5.760   5.754   7.636 -0.3283  0.2186  2.0272
18462THY    HP352012   5.838   5.631   7.528 -0.6914 -2.2886 -0.2876
18462THY    HP452013   5.715   5.742   7.463 -0.2775  0.0360 -3.4938
18462THY    CP352014   5.876   5.993   7.509 -0.0507 -0.0642  0.6341
18462THY    HP552015   5.782   6.012   7.455 -1.1594  2.0104  1.4701
18462THY    HP652016   5.951   6.060   7.468  0.2161 -0.3746  0.1452
18462THY    HP752017   5.857   6.026   7.612 -3.9549 -0.7954  1.2045
18462THY    CA352018   5.951   5.864   7.247  0.6254 -0.3701  0.4211
18462THY    HA352019   5.871   5.937   7.254  0.6442  1.4256  0.3075
18462THY    CA452020   6.023   5.847   7.135  0.1173 -0.5452  0.6073
18462THY    HA452021   5.989   5.900   7.046 -1.3821 -2.2066 -2.8524
18462THY    CA552022   6.150   5.783   7.142  0.1408 -0.0767  0.3663
18462THY    CM152023   6.235   5.774   7.013  0.0917  0.1328  0.1078
18462THY    HM152024   6.338   5.746   7.038 -0.3715  1.0314 -0.8478
18462THY    HM252025   6.238   5.871   6.961 -2.0463  0.6790  0.5229
18462THY    HM352026   6.181   5.704   6.949  0.5320 -2.8631  2.3069
18462THY    CA652027   6.179   5.706   7.255 -0.3251 -0.5706  0.1789
18462THY    HA652028   6.277   5.660   7.263  0.8445  1.0971  2.7199
18463THY      O52029   0.589   8.062   5.832 -0.2663 -0.0018  0.4140
18463THY     HO52030   0.557   8.120   5.761  0.9465 -0.0959  0.9936
18463THY    CA152031   0.547   7.933   5.800  0.2627 -0.2422 -0.6054
18463THY    CA252032   0.618   7.826   5.862  0.5732 -0.4159  0.3306
18463THY    CP152033   0.736   7.858   5.963  0.3881  0.2275  0.2438
18463THY    HP152034   0.762   7.964   5.965 -2.3268  3.0697  0.9989
18463THY    CP252035   0.877   7.776   5.946  0.8349  0.1694 -0.5061
18463THY    HP252036   0.857   7.670   5.968 -1.7686 -0.9029 -0.3342
18463THY    HP352037   0.945   7.827   6.014  0.0670 -1.1871  2.5341
18463THY    HP452038   0.918   7.777   5.844  0.0334 -0.1762 -1.0486
18463THY    CP352039   0.684   7.839   6.107  0.6523  0.4520 -0.1778
18463THY    HP552040   0.661   7.731   6.110 -3.5279 -2.4529  0.3958
18463THY    HP652041   0.586   7.883   6.124  0.5436 -0.5711 -0.0001
18463THY    HP752042   0.756   7.866   6.185 -0.3612  1.2599  0.2616
18463THY    CA352043   0.569   7.693   5.842 -0.2534  0.8948  0.0846
18463THY    HA352044   0.615   7.605   5.886 -0.5437  1.2659  0.1176
18463THY    CA452045   0.461   7.674   5.753  0.1257  0.2193  0.8151
18463THY    HA452046   0.425   7.573   5.734 -0.9756  1.6692  0.9053
18463THY    CA552047   0.403   7.777   5.686  0.3897  0.6752  0.1999
18463THY    CM152048   0.293   7.743   5.585 -0.1607 -0.4502 -0.3931
18463THY    HM152049   0.254   7.828   5.528  0.3610  1.7745  1.4121
18463THY    HM252050   0.211   7.714   5.652  0.1037  0.1139  0.1506
18463THY    HM352051   0.326   7.663   5.518  1.3542  0.1749 -0.3182
18463THY    CA652052   0.444   7.908   5.712  0.2680 -0.1266 -0.3372
18463THY    HA652053   0.391   7.990   5.664  0.2692  0.1927 -0.1511
18464THY      O52054   4.354   5.943   4.156 -0.9140  0.2312  0.3853
18464THY     HO52055   4.431   5.912   4.106 -2.4260 -1.4166 -0.9434
18464THY    CA152056   4.279   6.004   4.068 -0.2983  0.2189  0.2442
18464THY    CA252057   4.151   6.053   4.105 -0.1543 -0.2670  0.3570
18464THY    CP152058   4.103   6.052   4.247 -0.5559  0.1083  0.4280
18464THY    HP152059   4.187   6.061   4.317 -1.8192  1.4619  2.3690
18464THY    CP252060   4.053   5.908   4.274  0.5574  0.2070  0.4960
18464THY    HP252061   4.002   5.900   4.370  1.3902  0.5272 -1.3757
18464THY    HP352062   4.139   5.841   4.282  1.0470 -0.2198  1.0597
18464THY    HP452063   3.989   5.870   4.194  1.7213 -1.1786  1.2946
18464THY    CP352064   3.983   6.147   4.285  0.3972  0.0692  0.2917
18464THY    HP552065   4.000   6.250   4.253 -2.2087 -1.2094  0.3719
18464THY    HP652066   3.967   6.145   4.394  0.4199  0.0942 -2.3449
18464THY    HP752067   3.891   6.104   4.245 -0.0035  1.3525 -0.1066
18464THY    CA352068   4.070   6.099   4.000 -0.2067  0.4218 -0.1984
18464THY    HA352069   3.962   6.110   4.007  0.1041  3.1985  2.3085
18464THY    CA452070   4.127   6.112   3.875  0.3808 -0.4769 -0.4079
18464THY    HA452071   4.075   6.166   3.797  1.6576 -0.2552  1.2506
18464THY    CA552072   4.265   6.090   3.850  0.2401  0.7979  0.2886
18464THY    CM152073   4.332   6.134   3.722 -0.2244 -0.2463  0.3743
18464THY    HM152074   4.321   6.061   3.641  1.0635  1.9417 -2.4232
18464THY    HM252075   4.435   6.160   3.747 -0.9751  1.5469  1.8206
18464THY    HM352076   4.294   6.232   3.688  1.4357 -0.3980  1.0038
18464THY    CA652077   4.335   6.025   3.949  0.4580 -0.6581 -0.0149
18464THY    HA652078   4.440   6.007   3.926  1.2816  0.7122  2.5570
18465THY      O52079   9.350   2.190   4.783 -0.7286  0.3204  0.2565
18465THY     HO52080   9.357   2.121   4.851 -1.5060 -0.6586 -0.8499
18465THY    CA152081   9.271   2.290   4.828 -0.1890 -0.0004 -0.0633
18465THY    CA252082   9.206   2.376   4.736 -0.3280 -0.3283  0.8926
18465THY    CP152083   9.203   2.342   4.592  0.2895 -0.7905  1.0932
18465THY    HP152084   9.198   2.233   4.578 -0.9117  0.3860  0.9693
18465THY    CP252085   9.333   2.373   4.535  0.3518  0.4145 -0.4451
18465THY    HP252086   9.349   2.481   4.550 -0.2594  0.8353 -0.4062
18465THY    HP352087   9.333   2.349   4.428  0.7903  0.0443  1.0894
18465THY    HP452088   9.422   2.320   4.569  2.2492 -1.9318  1.0615
18465THY    CP352089   9.077   2.397   4.521  0.4131  0.1626  0.0442
18465THY    HP552090   9.046   2.335   4.436  0.6506  0.1926 -0.1148
18465THY    HP652091   9.087   2.503   4.495 -0.2986 -2.4061 -0.4654
18465THY    HP752092   8.991   2.387   4.589  1.7217  2.1648  1.5002
18465THY    CA352093   9.130   2.476   4.784  1.0077 -0.2051  0.1953
18465THY    HA352094   9.078   2.549   4.723 -0.5382  2.1816  1.2289
18465THY    CA452095   9.112   2.492   4.928 -0.4986 -0.5063  0.2665
18465THY    HA452096   9.055   2.572   4.975 -0.3601  0.3096 -0.0958
18465THY    CA552097   9.183   2.417   5.020 -0.1064  0.6071  1.0656
18465THY    CM152098   9.185   2.446   5.164  0.1975  0.6651 -0.4617
18465THY    HM152099   9.255   2.381   5.219 -0.1639 -0.1126 -1.5324
18465THY    HM252100   9.085   2.436   5.207  0.1622  0.6471 -0.1916
18465THY    HM352101   9.216   2.549   5.188  1.3392  0.1226 -0.6648
18465THY    CA652102   9.264   2.318   4.968  0.9824 -0.3306 -0.5663
18465THY    HA652103   9.322   2.251   5.031 -1.2913 -0.1416 -2.5014
18466THY      O52104   4.872   3.483   4.014 -0.2555  0.1886 -0.2007
18466THY     HO52105   4.852   3.567   4.059  0.8137 -0.9413  0.7039
18466THY    CA152106   4.875   3.375   4.096  0.1843  0.2531 -0.8776
18466THY    CA252107   4.860   3.245   4.049 -0.0271 -0.0765 -0.3674
18466THY    CP152108   4.874   3.221   3.902  0.2659  0.6877  0.1366
18466THY    HP152109   4.892   3.311   3.842  2.7774  1.7578  0.4343
18466THY    CP252110   4.747   3.162   3.844 -0.2609  0.1806 -0.1263
18466THY    HP252111   4.734   3.057   3.874 -0.5168  0.0466 -0.1342
18466THY    HP352112   4.757   3.160   3.735 -0.0916  0.1777  0.6607
18466THY    HP452113   4.652   3.209   3.873 -0.0336  0.0405  0.4149
18466THY    CP352114   4.993   3.125   3.870 -0.6695 -0.2678 -0.8136
18466THY    HP552115   5.005   3.110   3.762 -0.1275 -0.3304 -0.0274
18466THY    HP652116   4.972   3.023   3.904  1.2257 -1.6050 -1.7232
18466THY    HP752117   5.087   3.156   3.918  0.1221 -1.6232 -1.0283
18466THY    CA352118   4.839   3.144   4.143  0.2795  0.1854  0.5500
18466THY    HA352119   4.821   3.041   4.113  0.0481  2.5324 -0.1492
18466THY    CA452120   4.844   3.169   4.281  0.0527  0.0923 -0.6448
18466THY    HA452121   4.822   3.095   4.357  1.4446  0.0717 -1.1113
18466THY    CA552122   4.875   3.299   4.329 -0.0454  0.2054  0.6118
18466THY    CM152123   4.875   3.327   4.478 -0.0243 -0.4921  0.2142
18466THY    HM152124   4.961   3.385   4.513  1.1550 -0.5817 -1.3918
18466THY    HM252125   4.881   3.236   4.540  2.2812  0.9628  1.2560
18466THY    HM352126   4.789   3.382   4.516  1.5625  2.3347  0.9718
18466THY    CA652127   4.888   3.402   4.234  0.7020 -0.2476 -0.2986
18466THY    HA652128   4.905   3.506   4.258  1.0418 -1.7280  0.0080
18467THY      O52129   7.194   3.830   4.032  0.1120 -0.4299  0.1094
18467THY     HO52130   7.192   3.896   4.104  1.9216 -0.2919  0.0706
18467THY    CA152131   7.212   3.899   3.919 -0.4281  0.4262 -0.4670
18467THY    CA252132   7.239   3.834   3.801  0.1222 -0.5692 -0.2467
18467THY    CP152133   7.236   3.681   3.793 -0.0302 -0.0037  0.1158
18467THY    HP152134   7.260   3.637   3.891 -2.0479  0.7084  0.5039
18467THY    CP252135   7.338   3.630   3.688  0.4680 -0.2845 -0.1265
18467THY    HP252136   7.431   3.688   3.681 -0.6017  1.4794  1.9851
18467THY    HP352137   7.288   3.633   3.590  0.8653 -0.4640  2.0854
18467THY    HP452138   7.354   3.524   3.712 -0.9470  1.4579  0.0126
18467THY    CP352139   7.087   3.644   3.764  0.7108 -0.6173  0.2926
18467THY    HP552140   7.069   3.666   3.659  2.0759 -0.9305  0.0057
18467THY    HP652141   7.008   3.696   3.820  0.8072  0.4803 -0.6877
18467THY    HP752142   7.067   3.538   3.782 -2.4984  1.7045  1.1284
18467THY    CA352143   7.263   3.912   3.686  0.7874  0.2211  0.2861
18467THY    HA352144   7.272   3.863   3.589 -2.3833  0.0100 -0.0911
18467THY    CA452145   7.273   4.050   3.691 -1.1389  0.5838  0.5403
18467THY    HA452146   7.303   4.111   3.606  0.2983  1.0396  0.5125
18467THY    CA552147   7.260   4.116   3.811  0.4331 -0.1330  0.3014
18467THY    CM152148   7.276   4.267   3.827 -0.0902  0.7809 -0.3005
18467THY    HM152149   7.240   4.292   3.927  1.7418  1.2739  0.5846
18467THY    HM252150   7.224   4.318   3.745 -1.8974  0.2874 -2.7768
18467THY    HM352151   7.384   4.288   3.825 -0.0247 -0.2300 -0.7184
18467THY    CA652152   7.238   4.037   3.928  0.9720  0.0734  0.1445
18467THY    HA652153   7.240   4.086   4.025 -0.6877 -0.3751  1.1756
18468THY      O52154   2.429   1.674   5.645  0.1380 -0.3069  0.2424
18468THY     HO52155   2.357   1.695   5.583 -0.0856 -0.0329  0.2914
18468THY    CA152156   2.522   1.766   5.652  0.8124  0.3567  0.5855
18468THY    CA252157   2.619   1.764   5.764  0.4662 -0.3344 -0.1722
18468THY    CP152158   2.631   1.659   5.871 -0.0999  0.1369  0.4507
18468THY    HP152159   2.558   1.580   5.851  1.5943 -0.4647 -1.0153
18468THY    CP252160   2.604   1.714   6.008  0.4777 -0.6667  0.3803
18468THY    HP252161   2.671   1.794   6.043 -0.4350  2.1451  0.0529
18468THY    HP352162   2.595   1.635   6.084  0.1080 -0.7502  0.3417
18468THY    HP452163   2.508   1.766   6.011  1.1756 -0.3156  1.7163
18468THY    CP352164   2.771   1.594   5.867 -0.2698 -0.0673  0.4550
18468THY    HP552165   2.773   1.507   5.800  0.4323  0.1940  0.2642
18468THY    HP652166   2.787   1.548   5.965  2.6127 -1.3629 -1.5690
18468THY    HP752167   2.847   1.669   5.844  1.7108  1.0065 -1.1266
18468THY    CA352168   2.707   1.871   5.764  0.2123 -0.3253  0.1884
18468THY    HA352169   2.779   1.874   5.845  0.1509 -0.0351 -2.7578
18468THY    CA452170   2.694   1.978   5.675 -0.1847  0.0904 -0.5991
18468THY    HA452171   2.758   2.064   5.688  0.3468 -0.5733 -0.8847
18468THY    CA552172   2.603   1.969   5.567 -0.0767  0.8267 -0.5153
18468THY    CM152173   2.608   2.077   5.463 -0.3395 -1.2503 -1.1230
18468THY    HM152174   2.569   2.170   5.506  0.2824 -3.1021  0.0476
18468THY    HM252175   2.551   2.049   5.374  0.9881 -2.6368  0.3919
18468THY    HM352176   2.715   2.087   5.438 -0.3645 -0.7284  0.8721
18468THY    CA652177   2.511   1.864   5.559 -0.9326  0.2484 -0.4167
18468THY    HA652178   2.429   1.860   5.487 -0.1687 -0.5911 -1.6833
18469THY      O52179   7.064   1.434   2.587  0.7246 -0.2176 -1.0360
18469THY     HO52180   7.041   1.342   2.562  0.3522 -1.6502 -0.5817
18469THY    CA152181   7.005   1.499   2.487  0.2019  1.3027 -0.2608
18469THY    CA252182   6.983   1.639   2.483 -0.3839 -0.6132  0.0382
18469THY    CP152183   7.014   1.721   2.611  0.1295  0.1265  0.3538
18469THY    HP152184   7.049   1.654   2.690 -1.8165  1.9633  1.3821
18469THY    CP252185   6.882   1.776   2.670  0.4327  0.2433  0.1513
18469THY    HP252186   6.912   1.848   2.747  2.6249 -1.0012  0.6593
18469THY    HP352187   6.824   1.695   2.715 -1.5304 -0.8011  0.9009
18469THY    HP452188   6.826   1.836   2.597  1.2081 -0.8245 -0.3914
18469THY    CP352189   7.105   1.835   2.576 -0.8161  0.1430  0.6174
18469THY    HP552190   7.047   1.906   2.515  1.0675 -2.5946 -0.0242
18469THY    HP652191   7.185   1.795   2.513 -0.2517  1.3682 -0.2416
18469THY    HP752192   7.161   1.874   2.661  0.3942  1.2442 -3.0471
18469THY    CA352193   6.928   1.693   2.366  0.6121  0.9783 -0.0747
18469THY    HA352194   6.885   1.793   2.364 -0.3708 -0.4517 -0.4964
18469THY    CA452195   6.900   1.611   2.254 -0.0144 -0.0391 -0.2437
18469THY    HA452196   6.834   1.650   2.178 -1.6410  0.6523 -1.5511
18469THY    CA552197   6.936   1.476   2.258 -0.3649  0.7463  0.4620
18469THY    CM152198   6.888   1.391   2.145  0.1674  0.2362  0.0873
18469THY    HM152199   6.875   1.285   2.171  1.0940  0.2058 -0.0453
18469THY    HM252200   6.962   1.407   2.066  2.3569  2.0946 -0.2437
18469THY    HM352201   6.786   1.411   2.111 -0.9324  1.5721 -2.7136
18469THY    CA652202   6.994   1.420   2.371  0.7922  0.1021 -0.8972
18469THY    HA652203   6.997   1.312   2.371  1.7688  1.6165 -0.8922
18470THY      O52204   8.688   2.947   5.874  0.0290  0.4392  0.0349
18470THY     HO52205   8.597   2.971   5.900 -0.5408 -1.5547  0.1881
18470THY    CA152206   8.686   2.819   5.836  0.3889 -1.0210 -0.8911
18470THY    CA252207   8.800   2.742   5.804 -0.6960  0.5226  0.2469
18470THY    CP152208   8.938   2.804   5.801  0.1903 -0.0141 -0.6658
18470THY    HP152209   8.942   2.910   5.830  1.0258  2.1633 -1.2541
18470THY    CP252210   9.002   2.797   5.671  0.4050  1.5087 -0.5504
18470THY    HP252211   9.022   2.696   5.632  0.9187  0.2378  0.0278
18470THY    HP352212   9.093   2.858   5.674  0.8233  0.0798 -1.0715
18470THY    HP452213   8.943   2.855   5.600  2.4792 -0.1725 -0.3606
18470THY    CP352214   9.026   2.731   5.903  0.6635 -0.1268 -0.3970
18470THY    HP552215   9.045   2.626   5.878 -1.2715 -1.5521 -0.4620
18470THY    HP652216   8.978   2.748   6.000 -0.3867 -0.4676 -1.2854
18470THY    HP752217   9.122   2.782   5.909  0.8172 -1.0371 -0.5676
18470THY    CA352218   8.782   2.614   5.748 -0.3914  0.1919 -0.0878
18470THY    HA352219   8.863   2.553   5.710 -1.9594  0.5581 -2.5428
18470THY    CA452220   8.651   2.561   5.754  0.1388  0.0178 -0.2529
18470THY    HA452221   8.640   2.456   5.729  1.2960  1.8680 -0.8652
18470THY    CA552222   8.544   2.626   5.807  0.2351 -0.3173 -0.4252
18470THY    CM152223   8.412   2.553   5.826  0.1409  0.7899 -0.5536
18470THY    HM152224   8.340   2.605   5.763  0.9383 -0.3963 -0.8373
18470THY    HM252225   8.371   2.547   5.927 -0.7605  0.4395 -0.4839
18470THY    HM352226   8.422   2.450   5.791  0.0643 -1.1976  0.0692
18470THY    CA652227   8.560   2.757   5.851  0.3615  0.0308 -0.3331
18470THY    HA652228   8.478   2.816   5.890  0.1709  0.8232 -1.1099
18471THY      O52229   5.697   4.270   7.040  0.3056  0.4091  0.0253
18471THY     HO52230   5.645   4.188   7.043 -2.0870  1.0970  1.4769
18471THY    CA152231   5.598   4.364   7.020 -0.3568 -0.3386 -0.0569
18471THY    CA252232   5.623   4.493   6.965 -0.4899  0.7660 -0.9067
18471THY    CP152233   5.768   4.522   6.914 -0.3208 -0.1812  0.3384
18471THY    HP152234   5.817   4.433   6.873  2.0172 -2.7939  2.6343
18471THY    CP252235   5.857   4.587   7.024 -0.0060 -1.1968 -0.1014
18471THY    HP252236   5.868   4.520   7.110 -2.4362 -0.0670  0.8321
18471THY    HP352237   5.811   4.679   7.062 -2.0403  0.6251 -1.7446
18471THY    HP452238   5.955   4.616   6.984  0.3174 -0.1876  0.2359
18471THY    CP352239   5.771   4.620   6.789  0.1465  0.0838  0.2846
18471THY    HP552240   5.722   4.575   6.702 -1.4568 -0.0054  2.0873
18471THY    HP652241   5.869   4.640   6.744 -0.8863 -2.1855  0.5371
18471THY    HP752242   5.738   4.724   6.802 -1.7092 -1.0886 -0.1041
18471THY    CA352243   5.530   4.597   6.987  0.9189  0.6395 -0.1834
18471THY    HA352244   5.543   4.695   6.942  0.5303 -0.0799 -0.4509
18471THY    CA452245   5.401   4.562   7.028 -0.6069 -0.2464 -0.5414
18471THY    HA452246   5.328   4.642   7.017  0.4527 -1.0604  0.3465
18471THY    CA552247   5.376   4.430   7.074 -0.1116 -0.3517  1.1122
18471THY    CM152248   5.239   4.397   7.118  0.3893 -0.5660  0.4445
18471THY    HM152249   5.178   4.372   7.031  1.4720 -1.4229  0.7293
18471THY    HM252250   5.200   4.482   7.175  0.8949 -1.5507  1.3501
18471THY    HM352251   5.223   4.313   7.187 -2.4475 -1.7379 -0.0822
18471THY    CA652252   5.475   4.335   7.073 -0.4979 -1.0480  0.5013
18471THY    HA652253   5.453   4.241   7.122 -0.3203  1.9768  1.9405
18472THY      O52254   2.553   9.182   3.095 -0.6947 -0.1731 -0.0429
18472THY     HO52255   2.576   9.250   3.029 -1.3054 -1.2678 -0.8595
18472THY    CA152256   2.580   9.233   3.220  0.6247 -0.2977 -0.4850
18472THY    CA252257   2.483   9.237   3.323  0.3651 -0.3261 -0.1681
18472THY    CP152258   2.342   9.189   3.299  0.3754  0.0560  0.1473
18472THY    HP152259   2.333   9.159   3.194  1.3935  0.0233 -0.0598
18472THY    CP252260   2.262   9.313   3.332  0.3823  0.0699  0.4237
18472THY    HP252261   2.161   9.292   3.293  0.2001  0.7323  0.0391
18472THY    HP352262   2.298   9.406   3.288 -0.7980 -0.6024  0.5898
18472THY    HP452263   2.265   9.329   3.440  1.4985  0.0736  0.2436
18472THY    CP352264   2.318   9.068   3.389  0.1308  0.0456  1.3363
18472THY    HP552265   2.210   9.053   3.397  0.1386 -0.4330  1.0148
18472THY    HP652266   2.353   9.087   3.491  0.0262  0.6247 -1.2528
18472THY    HP752267   2.363   8.975   3.352  0.7448 -0.7670  1.9451
18472THY    CA352268   2.531   9.289   3.447 -0.4056 -0.1333  0.3837
18472THY    HA352269   2.457   9.289   3.527 -0.8717 -0.5382  1.4626
18472THY    CA452270   2.662   9.337   3.465 -0.2158  0.1217  0.0941
18472THY    HA452271   2.697   9.381   3.558  0.2561 -0.7848  1.7009
18472THY    CA552272   2.747   9.338   3.356 -0.2369 -0.2345  1.1725
18472THY    CM152273   2.886   9.380   3.370  0.1796 -0.0835 -1.0539
18472THY    HM152274   2.903   9.486   3.347  1.9465 -1.0713 -1.5204
18472THY    HM252275   2.949   9.321   3.304  4.0086  2.1398  0.1910
18472THY    HM352276   2.905   9.376   3.478 -1.4239  0.5619  3.0824
18472THY    CA652277   2.707   9.287   3.236  0.4966  0.9011  0.1064
18472THY    HA652278   2.771   9.282   3.148  0.5040  0.8599  0.8159
18473THY      O52279   8.350   0.839   4.397  0.3081 -0.3385  0.0725
18473THY     HO52280   8.392   0.814   4.313 -2.2562 -0.9844 -2.6204
18473THY    CA152281   8.426   0.936   4.450  0.2312  0.0566 -0.0422
18473THY    CA252282   8.423   0.968   4.588  0.0754  0.1500 -0.2255
18473THY    CP152283   8.347   0.880   4.688 -1.0044  0.5220  0.4008
18473THY    HP152284   8.318   0.783   4.646 -1.9401  3.6088 -0.7793
18473THY    CP252285   8.206   0.935   4.723 -0.6617 -0.0339 -0.4836
18473THY    HP252286   8.143   0.864   4.777 -0.7472  0.6350  0.0908
18473THY    HP352287   8.153   0.950   4.628  1.1261 -1.1601 -1.0086
18473THY    HP452288   8.207   1.027   4.783  1.4505 -0.1542 -0.3723
18473THY    CP352289   8.424   0.847   4.813  0.0916  0.0253  0.5634
18473THY    HP552290   8.520   0.809   4.776  0.0751 -1.2504  1.6849
18473THY    HP652291   8.384   0.771   4.881  2.1530 -0.7030 -1.2674
18473THY    HP752292   8.433   0.934   4.879 -2.0054 -0.1167  0.9581
18473THY    CA352293   8.499   1.087   4.626 -0.1675 -0.1588  0.4082
18473THY    HA352294   8.497   1.121   4.729 -0.4172  0.2154 -0.7310
18473THY    CA452295   8.570   1.160   4.532  0.8410 -0.5095  0.0745
18473THY    HA452296   8.643   1.235   4.561 -1.2044  2.1906  1.1949
18473THY    CA552297   8.557   1.129   4.399 -0.2319  0.3967 -0.4539
18473THY    CM152298   8.638   1.196   4.295 -0.9370 -0.1954 -0.3991
18473THY    HM152299   8.724   1.136   4.262 -0.6639  0.1731 -0.2128
18473THY    HM252300   8.680   1.282   4.349 -0.0090 -0.4305 -0.6932
18473THY    HM352301   8.574   1.235   4.215  1.2890 -0.8094  2.3222
18473THY    CA652302   8.491   1.017   4.361  0.2244  0.0098  0.1957
18473THY    HA652303   8.498   0.991   4.256 -2.3605 -0.7414  2.1491
18474THY      O52304   8.481   8.737   3.280 -0.0224 -0.6926 -0.0833
18474THY     HO52305   8.520   8.753   3.368 -3.4847  1.0011  0.2422
18474THY    CA152306   8.446   8.862   3.239 -1.2835 -0.6531 -0.5044
18474THY    CA252307   8.343   8.894   3.152  0.1855 -0.3330 -0.1075
18474THY    CP152308   8.241   8.796   3.108 -0.0891  0.3170  0.0445
18474THY    HP152309   8.272   8.691   3.110 -1.7206  1.5482 -0.4600
18474THY    CP252310   8.224   8.820   2.955  0.0850  0.0856  0.3111
18474THY    HP252311   8.320   8.839   2.905  0.5757  0.4044 -1.2035
18474THY    HP352312   8.157   8.907   2.946  0.4119 -0.1401  0.5409
18474THY    HP452313   8.171   8.735   2.911 -1.7374  1.0778  0.8746
18474THY    CP352314   8.106   8.810   3.183  0.4615 -0.7261  0.1615
18474THY    HP552315   8.062   8.908   3.164 -2.1186  0.0488 -0.7726
18474THY    HP652316   8.120   8.792   3.290 -0.2432 -0.7048 -0.2695
18474THY    HP752317   8.038   8.737   3.139 -0.7829  3.3792 -1.4697
18474THY    CA352318   8.333   9.031   3.112 -0.0919  0.2910  0.3355
18474THY    HA352319   8.255   9.054   3.040 -0.8301  0.7760 -0.5486
18474THY    CA452320   8.402   9.129   3.178 -0.3098  0.2531 -0.1690
18474THY    HA452321   8.374   9.231   3.157  0.8870  2.0490  0.5791
18474THY    CA552322   8.511   9.089   3.264 -0.3934 -0.1673 -0.5358
18474THY    CM152323   8.585   9.198   3.336  0.1779  0.4528 -0.2032
18474THY    HM152324   8.559   9.297   3.298  0.0915 -2.3265 -1.1934
18474THY    HM252325   8.693   9.194   3.318  0.0326 -0.5147 -0.0969
18474THY    HM352326   8.577   9.192   3.445 -0.5006  0.3600 -1.5629
18474THY    CA652327   8.534   8.959   3.289  0.3642  0.3887  0.2427
18474THY    HA652328   8.613   8.943   3.362  0.4010  0.0362 -1.2525
18475THY      O52329   8.136   4.709   4.984 -0.0110 -0.0503 -0.5663
18475THY     HO52330   8.056   4.659   4.962 -1.0844  0.4029  0.8938
18475THY    CA152331   8.110   4.831   4.926  0.0022  0.0477 -0.1038
18475THY    CA252332   8.064   4.934   5.006  0.2889 -0.0434  0.1392
18475THY    CP152333   8.040   4.912   5.157  0.0467 -0.0437  0.7965
18475THY    HP152334   8.073   4.814   5.194  3.0758  0.4162  1.8929
18475THY    CP252335   7.894   4.910   5.190 -0.3651  0.0352  0.4609
18475THY    HP252336   7.843   5.001   5.156  1.6313 -0.8006  1.3173
18475THY    HP352337   7.878   4.885   5.296 -0.9306 -0.1658 -0.0614
18475THY    HP452338   7.862   4.823   5.132 -1.2092  1.0653  0.0566
18475THY    CP352339   8.104   5.029   5.239 -0.2201 -0.0897  0.0722
18475THY    HP552340   8.091   5.012   5.347 -0.4585  0.1316  1.4658
18475THY    HP652341   8.068   5.132   5.228 -0.4962  2.0394  0.2687
18475THY    HP752342   8.212   5.025   5.225 -0.4444 -1.8733 -0.4821
18475THY    CA352343   8.045   5.057   4.947  0.0503 -0.2152 -0.0789
18475THY    HA352344   8.023   5.145   5.007  2.4792  2.0118 -0.8630
18475THY    CA452345   8.057   5.071   4.809 -0.5512 -0.0899 -0.1745
18475THY    HA452346   8.033   5.170   4.769 -4.2501  1.9127 -0.0914
18475THY    CA552347   8.106   4.965   4.731 -1.1535  0.1929 -0.6543
18475THY    CM152348   8.137   5.002   4.585 -0.3427  0.6999 -0.5713
18475THY    HM152349   8.195   5.095   4.586  0.2993 -2.7788 -0.7876
18475THY    HM252350   8.049   5.032   4.527  1.2088 -2.4883 -1.6418
18475THY    HM352351   8.195   4.922   4.536  1.0943  2.9198 -0.9594
18475THY    CA652352   8.139   4.847   4.793 -0.5979 -0.4124 -0.3240
18475THY    HA652353   8.192   4.771   4.736 -0.6585  1.6888 -2.0515
18476THY      O52354   6.067   7.183   5.079  0.0917  0.0332  0.5678
18476THY     HO52355   6.076   7.257   5.016 -0.1353  2.7549  3.1200
18476THY    CA152356   6.053   7.236   5.208  0.7259 -0.1710  0.0611
18476THY    CA252357   6.010   7.164   5.320  0.0434  0.1528 -0.1420
18476THY    CP152358   5.964   7.018   5.309 -0.1896  0.0574  0.2045
18476THY    HP152359   5.924   6.990   5.210  0.9030  0.1608 -1.9768
18476THY    CP252360   5.868   6.964   5.422 -0.1111  0.7770 -0.5555
18476THY    HP252361   5.817   6.872   5.392  0.4476  1.6331 -1.1603
18476THY    HP352362   5.789   7.039   5.435 -1.0696 -0.2285 -1.3518
18476THY    HP452363   5.924   6.935   5.512 -0.6473  0.5262 -2.5413
18476THY    CP352364   6.100   6.930   5.329  0.7101 -0.9391  0.4273
18476THY    HP552365   6.145   6.963   5.424 -0.1079 -0.3898  0.0054
18476THY    HP652366   6.169   6.951   5.247 -0.3757 -2.2545 -0.9283
18476THY    HP752367   6.080   6.823   5.343 -0.5710 -0.6543  0.6817
18476THY    CA352368   6.005   7.235   5.440 -0.3003 -0.4724 -0.2966
18476THY    HA352369   5.979   7.189   5.536  0.4196  0.3401  0.9395
18476THY    CA452370   6.025   7.373   5.446  0.1036 -0.3225 -0.0075
18476THY    HA452371   6.003   7.422   5.541  2.3908  0.8155 -0.9891
18476THY    CA552372   6.075   7.441   5.338  0.1797 -0.3463  0.6857
18476THY    CM152373   6.112   7.583   5.343 -0.1442  0.5096  0.3340
18476THY    HM152374   6.125   7.606   5.237 -0.3022  0.3824 -0.1628
18476THY    HM252375   6.209   7.601   5.390 -1.0697  2.0137  1.6682
18476THY    HM352376   6.029   7.646   5.380 -1.4183 -1.7663  0.0900
18476THY    CA652377   6.091   7.367   5.218 -0.0523  0.7140 -0.5971
18476THY    HA652378   6.134   7.423   5.136 -1.7592 -0.1308 -0.4591
18477THY      O52379   7.175   3.991   4.316  0.1861  0.1784 -0.2250
18477THY     HO52380   7.234   3.998   4.393 -0.1432  0.3915  0.2645
18477THY    CA152381   7.131   4.118   4.287  0.2730  0.0822 -0.2143
18477THY    CA252382   7.006   4.142   4.220  0.1931 -0.1197  0.5786
18477THY    CP152383   6.924   4.024   4.174 -0.4467  0.5324  0.3927
18477THY    HP152384   6.981   3.933   4.192  0.4745 -0.6907  0.6926
18477THY    CP252385   6.883   4.028   4.025 -0.3284 -0.7407 -0.0228
18477THY    HP252386   6.837   3.934   3.993 -0.5541  1.3666 -0.6834
18477THY    HP352387   6.975   4.031   3.964 -0.2762 -0.6669 -0.1299
18477THY    HP452388   6.824   4.117   4.000 -1.3826  3.9904  0.8600
18477THY    CP352389   6.792   4.030   4.264 -0.1301 -0.0152 -0.2826
18477THY    HP552390   6.728   3.942   4.262 -0.5476  1.1178 -0.0257
18477THY    HP652391   6.726   4.106   4.221 -0.8122  1.3579 -0.0577
18477THY    HP752392   6.820   4.059   4.366  2.4456 -0.5283 -0.6623
18477THY    CA352393   6.966   4.277   4.194 -0.5262 -0.0603  0.1026
18477THY    HA352394   6.887   4.305   4.126  2.0762 -3.1509  0.5771
18477THY    CA452395   7.059   4.380   4.231  0.3705  0.0665  0.5754
18477THY    HA452396   7.039   4.486   4.220 -0.0636 -1.8153  0.3310
18477THY    CA552397   7.178   4.349   4.295 -0.4027 -1.0707  1.0002
18477THY    CM152398   7.261   4.453   4.347  0.7913 -0.1433  0.1559
18477THY    HM152399   7.365   4.433   4.320  0.5564 -0.5242 -0.5976
18477THY    HM252400   7.246   4.471   4.454 -0.6960 -0.3020  0.0454
18477THY    HM352401   7.238   4.546   4.292 -2.7198  0.1728 -0.3843
18477THY    CA652402   7.214   4.216   4.327  0.1034  0.4806 -0.4700
18477THY    HA652403   7.313   4.191   4.365 -0.0480  1.4369  0.3155
18478THY      O52404   4.157   6.274   6.270 -0.1428  0.4197  0.1821
18478THY     HO52405   4.073   6.231   6.294  0.5030  0.0484 -1.3493
18478THY    CA152406   4.138   6.331   6.150  0.0118  0.0226  0.1786
18478THY    CA252407   4.243   6.387   6.072 -0.3027  0.2538 -0.2473
18478THY    CP152408   4.388   6.369   6.119  0.3190  0.7599 -0.5164
18478THY    HP152409   4.394   6.316   6.215  1.6961  0.6699 -0.5566
18478THY    CP252410   4.457   6.510   6.138 -0.4007 -0.5031 -0.1274
18478THY    HP252411   4.429   6.569   6.226 -0.5001 -0.3874 -0.3486
18478THY    HP352412   4.461   6.572   6.047 -1.0981 -0.6454 -0.2743
18478THY    HP452413   4.561   6.485   6.159 -1.2141  1.5876 -2.1363
18478THY    CP352414   4.459   6.298   6.011  0.1302  0.9503  0.0428
18478THY    HP552415   4.408   6.203   5.994  1.0902  2.2600 -0.7369
18478THY    HP652416   4.563   6.270   6.031  0.1356 -1.1015 -1.7377
18478THY    HP752417   4.457   6.359   5.919  0.3547 -0.0582 -1.4291
18478THY    CA352418   4.213   6.452   5.954 -0.2041 -0.1083  0.1405
18478THY    HA352419   4.292   6.490   5.891 -0.5864 -1.2312 -0.8580
18478THY    CA452420   4.081   6.463   5.912 -0.4862 -0.3047  0.0839
18478THY    HA452421   4.049   6.503   5.816 -1.6189  0.2321  0.5151
18478THY    CA552422   3.978   6.417   5.990 -0.3412 -0.4022 -0.1139
18478THY    CM152423   3.839   6.405   5.934 -0.4974  0.4848  0.2427
18478THY    HM152424   3.819   6.488   5.864 -0.2211  1.1875  0.9210
18478THY    HM252425   3.762   6.419   6.011 -1.8081 -0.8448  0.6501
18478THY    HM352426   3.821   6.308   5.887 -0.6964 -1.6704  1.2664
18478THY    CA652427   4.004   6.342   6.109  0.1826  0.0607 -0.2329
18478THY    HA652428   3.921   6.301   6.166 -1.7128 -1.9514  0.6119
18479THY      O52429   5.496   4.314   7.834 -0.2789 -0.2216 -0.0993
18479THY     HO52430   5.563   4.314   7.904  1.6456 -1.9662  0.8706
18479THY    CA152431   5.547   4.268   7.715  0.3313 -0.2922  0.4398
18479THY    CA252432   5.684   4.282   7.676  0.0087  0.4880  0.6295
18479THY    CP152433   5.791   4.322   7.778  0.0214 -0.3380 -0.8474
18479THY    HP152434   5.749   4.380   7.861 -1.2159  0.0001 -2.1703
18479THY    CP252435   5.913   4.395   7.724  0.0067 -0.1493 -0.1190
18479THY    HP252436   5.892   4.492   7.678 -0.1441 -0.4992 -0.3145
18479THY    HP352437   5.964   4.339   7.644 -0.6317 -1.6385  1.3397
18479THY    HP452438   5.990   4.417   7.799  1.3381 -1.7961  1.1493
18479THY    CP352439   5.836   4.191   7.843  0.5714  0.1956  0.8805
18479THY    HP552440   5.874   4.124   7.765 -1.8931 -1.2055  1.0188
18479THY    HP652441   5.755   4.131   7.885 -0.5744 -1.4742  1.1821
18479THY    HP752442   5.912   4.212   7.919 -1.6560  3.0588 -0.7341
18479THY    CA352443   5.710   4.248   7.537  0.6191 -0.0636 -0.2304
18479THY    HA352444   5.808   4.259   7.493  0.8797  0.5101 -0.2249
18479THY    CA452445   5.604   4.209   7.450 -0.7220  0.0649  0.1752
18479THY    HA452446   5.628   4.199   7.344  1.2588  0.5813 -0.9814
18479THY    CA552447   5.479   4.179   7.498  0.1844  0.4943  0.1397
18479THY    CM152448   5.364   4.143   7.408 -0.0323  0.2469  0.4695
18479THY    HM152449   5.395   4.145   7.303  0.5719  0.3908 -0.4889
18479THY    HM252450   5.273   4.200   7.429 -2.0536  0.4340 -2.5477
18479THY    HM352451   5.328   4.040   7.421  0.9132 -0.0867  0.0837
18479THY    CA652452   5.452   4.216   7.632  0.6346 -0.3884 -0.2678
18479THY    HA652453   5.349   4.213   7.665  0.9201  0.5759  0.0964
18480THY      O52454   7.945   3.425   7.225 -0.2370 -0.4743  0.0862
18480THY     HO52455   7.868   3.477   7.254 -0.5976 -0.5800 -0.3825
18480THY    CA152456   8.004   3.387   7.340 -0.5665  0.0294  1.1592
18480THY    CA252457   8.131   3.319   7.349 -1.0183  0.7982  0.2140
18480THY    CP152458   8.201   3.262   7.220  0.0483 -0.1784 -0.2514
18480THY    HP152459   8.140   3.274   7.130  0.1319 -0.1182  0.7097
18480THY    CP252460   8.253   3.112   7.230 -0.1454 -0.6155 -0.4856
18480THY    HP252461   8.324   3.085   7.152  2.0750  1.4847 -1.0044
18480THY    HP352462   8.172   3.038   7.234  0.0750 -0.6511 -0.7264
18480THY    HP452463   8.310   3.099   7.323 -2.4838  2.0069  4.7516
18480THY    CP352464   8.330   3.345   7.194  0.3546 -0.1033 -0.1387
18480THY    HP552465   8.363   3.324   7.092  2.5753  0.4833  0.2576
18480THY    HP652466   8.410   3.315   7.262  0.4534 -0.1185  0.0881
18480THY    HP752467   8.307   3.452   7.201 -0.2836  3.3450 -0.3848
18480THY    CA352468   8.179   3.276   7.472 -0.5319 -0.3998  0.4344
18480THY    HA352469   8.266   3.213   7.485 -0.3788 -0.2997  0.6635
18480THY    CA452470   8.117   3.322   7.585 -0.2774 -0.8617  0.2081
18480THY    HA452471   8.165   3.297   7.679  1.8665 -1.2664  2.4004
18480THY    CA552472   7.994   3.391   7.582 -0.5281 -0.2603 -0.4836
18480THY    CM152473   7.926   3.425   7.713  0.1096  0.5714  0.5660
18480THY    HM152474   7.984   3.395   7.801  0.4710 -0.6784 -2.8807
18480THY    HM252475   7.836   3.362   7.723 -0.9810 -0.5485  1.8817
18480THY    HM352476   7.879   3.523   7.715 -0.6016 -0.1668  0.2546
18480THY    CA652477   7.937   3.415   7.459 -0.1031 -0.4784 -0.4360
18480THY    HA652478   7.835   3.454   7.459 -0.1322 -1.6965 -0.4726
18481THY      O52479   8.485   7.327   6.077 -0.1309  0.0583  0.9369
18481THY     HO52480   8.580   7.328   6.058 -0.2090 -0.3493  1.0429
18481THY    CA152481   8.467   7.359   6.204  0.3727  0.6620 -0.0099
18481THY    CA252482   8.358   7.307   6.270  0.6163 -0.3566  0.4871
18481THY    CP152483   8.250   7.229   6.191 -0.1467 -0.2105 -0.0607
18481THY    HP152484   8.300   7.180   6.107 -1.1878  0.2515 -2.0204
18481THY    CP252485   8.147   7.329   6.148  0.2878 -0.4090 -0.1123
18481THY    HP252486   8.066   7.272   6.102  0.6204 -1.3053  0.1154
18481THY    HP352487   8.182   7.392   6.065 -0.5696 -1.6545 -1.2150
18481THY    HP452488   8.111   7.387   6.234 -0.2933 -2.0123  2.0505
18481THY    CP352489   8.186   7.110   6.270  0.1248  0.4848 -0.8668
18481THY    HP552490   8.139   7.035   6.206  0.1362 -0.1963 -0.3022
18481THY    HP652491   8.104   7.149   6.332 -1.0712 -1.7253  0.3201
18481THY    HP752492   8.265   7.077   6.339  1.1442 -0.6711 -0.9148
18481THY    CA352493   8.339   7.345   6.406 -0.3129  0.4697 -0.0203
18481THY    HA352494   8.260   7.306   6.470 -0.1150  0.3627 -0.5983
18481THY    CA452495   8.434   7.419   6.475  0.3368  0.8324 -0.2863
18481THY    HA452496   8.416   7.437   6.580 -0.2700  0.7140 -0.1770
18481THY    CA552497   8.549   7.457   6.404  0.3550  0.6537 -0.1223
18481THY    CM152498   8.658   7.532   6.469 -0.6496 -0.3732  0.0052
18481THY    HM152499   8.624   7.634   6.491 -0.3069 -1.7796  0.4462
18481THY    HM252500   8.749   7.519   6.410  1.0010  1.8096  0.8761
18481THY    HM352501   8.682   7.485   6.565 -0.0930 -0.5413 -0.0609
18481THY    CA652502   8.559   7.440   6.266  0.4711 -0.0917  0.2221
18481THY    HA652503   8.647   7.475   6.213 -0.1135 -2.4100 -1.5694
18482THY      O52504   8.291   7.188   6.710  0.2636  0.0191 -0.1292
18482THY     HO52505   8.354   7.239   6.763 -1.6018  2.7602 -0.4622
18482THY    CA152506   8.322   7.067   6.762  0.3492 -0.4220  0.0551
18482THY    CA252507   8.245   6.954   6.724 -0.1833  0.1653 -0.1972
18482THY    CP152508   8.124   6.959   6.628  0.3314 -0.5320  0.3533
18482THY    HP152509   8.113   7.050   6.569 -1.3286  0.8364  1.1062
18482THY    CP252510   7.996   6.966   6.712  0.1871 -0.2114 -0.4029
18482THY    HP252511   7.911   6.909   6.674  0.1293 -0.1491 -0.3580
18482THY    HP352512   7.959   7.070   6.709  1.6267 -0.1840  0.1337
18482THY    HP452513   8.012   6.924   6.812 -1.7777 -0.0528 -0.8475
18482THY    CP352514   8.110   6.839   6.533 -0.1954  0.4022  0.5071
18482THY    HP552515   8.202   6.788   6.504  0.0360  0.4842  0.8762
18482THY    HP652516   8.073   6.879   6.438  1.4824  0.2963  1.8871
18482THY    HP752517   8.037   6.766   6.571 -0.6437 -2.6650 -0.7910
18482THY    CA352518   8.292   6.828   6.770 -0.5451 -0.3867 -0.6998
18482THY    HA352519   8.241   6.737   6.739  0.8846 -0.2211 -1.5898
18482THY    CA452520   8.403   6.829   6.847 -1.5209 -0.1808 -0.0010
18482THY    HA452521   8.449   6.735   6.875 -0.6911  0.5302  0.5938
18482THY    CA552522   8.474   6.938   6.888  0.2853  0.2419 -0.3550
18482THY    CM152523   8.589   6.929   6.994 -0.0975  0.1691  0.0423
18482THY    HM152524   8.663   7.010   6.994 -1.0044  0.4030  0.8742
18482THY    HM252525   8.652   6.840   6.979 -1.0266 -1.9074 -0.3310
18482THY    HM352526   8.548   6.917   7.094  0.6510  0.5687  0.6914
18482THY    CA652527   8.432   7.059   6.844  0.0355 -0.3528 -0.1171
18482THY    HA652528   8.491   7.147   6.869  0.3346  2.6966 -1.0642
18483THY      O52529   2.355   5.752   3.349  0.2621 -0.2289  0.0289
18483THY     HO52530   2.356   5.690   3.274  0.9360 -0.2717  0.0811
18483THY    CA152531   2.273   5.696   3.440  0.2112 -0.9461 -0.4193
18483THY    CA252532   2.234   5.768   3.557 -0.1654 -0.2200 -0.4988
18483THY    CP152533   2.291   5.908   3.578 -0.7647 -0.3437 -0.6634
18483THY    HP152534   2.379   5.922   3.515  1.7654  3.0340 -0.0864
18483THY    CP252535   2.355   5.927   3.720  0.2572  0.0604  0.6622
18483THY    HP252536   2.291   5.899   3.804  0.9627  0.4149  0.0798
18483THY    HP352537   2.372   6.035   3.728  0.1778 -3.2752  1.0096
18483THY    HP452538   2.457   5.889   3.737  0.1685  0.1587  0.4656
18483THY    CP352539   2.193   6.025   3.557 -0.1599 -0.3036  0.0878
18483THY    HP552540   2.133   6.017   3.465 -0.2206 -0.2251 -0.3860
18483THY    HP652541   2.261   6.110   3.557 -0.1459  0.9899  0.0831
18483THY    HP752542   2.131   6.029   3.647  0.4482  0.4084 -3.4356
18483THY    CA352543   2.144   5.707   3.646 -0.6548  0.3978 -0.1414
18483THY    HA352544   2.106   5.749   3.738 -0.2097  2.1972 -3.3528
18483THY    CA452545   2.103   5.579   3.628  0.2059 -0.0154 -0.1776
18483THY    HA452546   2.032   5.533   3.696 -0.3353 -0.5898 -0.2062
18483THY    CA552547   2.142   5.511   3.519 -0.4428  0.5594  0.0889
18483THY    CM152548   2.116   5.364   3.500 -0.5810  0.3813  0.0864
18483THY    HM152549   2.184   5.313   3.431 -1.2293  0.4300 -0.8734
18483THY    HM252550   2.025   5.344   3.441  0.1783 -0.0769 -2.2238
18483THY    HM352551   2.101   5.318   3.598  0.6884 -0.0372 -1.2671
18483THY    CA652552   2.227   5.566   3.417  0.6275  0.1886  0.0347
18483THY    HA652553   2.248   5.510   3.326  1.5042  1.0288 -1.0476
18484THY      O52554   8.964   5.984   6.768  0.0719 -0.0191  0.2386
18484THY     HO52555   9.015   5.999   6.849  0.4815  0.0192 -1.2327
18484THY    CA152556   8.916   5.857   6.780 -0.4343  0.4736  0.5154
18484THY    CA252557   8.820   5.803   6.692  0.1329  0.1570 -0.8745
18484THY    CP152558   8.753   5.898   6.592  0.2883 -0.5061 -0.1669
18484THY    HP152559   8.746   5.997   6.638  2.2552 -0.4431 -0.0173
18484THY    CP252560   8.602   5.858   6.569 -0.4239  0.2770 -0.8002
18484THY    HP252561   8.555   5.922   6.494 -0.1866  0.5734 -0.2591
18484THY    HP352562   8.552   5.866   6.666 -0.2867  0.2968 -0.0493
18484THY    HP452563   8.586   5.765   6.514 -1.5667 -0.8906  0.0555
18484THY    CP352564   8.821   5.915   6.459  0.7454  0.2329  0.0955
18484THY    HP552565   8.927   5.941   6.464  0.8754  1.6764 -0.6292
18484THY    HP652566   8.768   5.990   6.399  1.2446 -1.2420 -0.6900
18484THY    HP752567   8.813   5.819   6.407 -0.2548 -2.1192  1.3486
18484THY    CA352568   8.796   5.665   6.699  0.5362  0.1772  0.1982
18484THY    HA352569   8.734   5.617   6.624 -1.1300  1.0990  0.8348
18484THY    CA452570   8.853   5.588   6.805  0.4142  0.3781  0.2084
18484THY    HA452571   8.827   5.482   6.808  0.4880  1.6644  0.2124
18484THY    CA552572   8.938   5.649   6.900 -0.3003  0.0425  0.6191
18484THY    CM152573   8.999   5.553   6.998  0.3506 -0.1745  0.0677
18484THY    HM152574   9.100   5.589   7.020  0.0850 -0.3463  0.9450
18484THY    HM252575   9.009   5.451   6.959 -0.1545  2.2080 -0.9580
18484THY    HM352576   8.932   5.538   7.083 -0.0957 -0.5027  0.1880
18484THY    CA652577   8.972   5.781   6.890 -0.1430  0.4079 -0.5686
18484THY    HA652578   9.029   5.833   6.966 -2.5214  0.9047  1.5335
18485THY      O52579   4.273   3.713   7.376 -0.8568  0.4493 -0.3630
18485THY     HO52580   4.290   3.808   7.382  2.5763  0.3210 -0.8176
18485THY    CA152581   4.201   3.669   7.279  0.5329  0.0302  0.5574
18485THY    CA252582   4.213   3.537   7.236 -0.8630 -0.1355  0.1826
18485THY    CP152583   4.288   3.434   7.320  0.3146 -0.5342 -0.5789
18485THY    HP152584   4.307   3.479   7.418  1.5330 -1.2135  0.4336
18485THY    CP252585   4.431   3.404   7.269 -0.5733 -0.3733 -0.2599
18485THY    HP252586   4.489   3.379   7.359 -0.2287 -0.5350 -0.0538
18485THY    HP352587   4.482   3.497   7.240 -0.5476 -0.5471 -0.3286
18485THY    HP452588   4.438   3.334   7.185  3.3526 -0.2931 -0.2097
18485THY    CP352589   4.208   3.308   7.348 -0.4386  0.1636  0.1889
18485THY    HP552590   4.174   3.257   7.257  1.0598 -1.0267  1.2296
18485THY    HP652591   4.125   3.328   7.417 -0.6681  0.4842 -1.7094
18485THY    HP752592   4.265   3.234   7.405  0.2518 -1.9195 -0.9553
18485THY    CA352593   4.148   3.496   7.122  0.3327 -0.0695  0.0360
18485THY    HA352594   4.164   3.396   7.082  0.2936  0.7932 -0.3223
18485THY    CA452595   4.058   3.585   7.054  0.3446  0.1834  0.1110
18485THY    HA452596   3.999   3.535   6.978  0.9814  0.0062 -0.3862
18485THY    CA552597   4.039   3.713   7.103  0.2705 -1.0692  0.2471
18485THY    CM152598   3.916   3.797   7.053 -1.0755 -0.0250 -0.3287
18485THY    HM152599   3.947   3.897   7.021  1.2697 -0.1408 -1.0348
18485THY    HM252600   3.854   3.816   7.141 -1.8218 -0.9311  1.7565
18485THY    HM352601   3.855   3.749   6.976 -1.4941  1.4330 -2.2730
18485THY    CA652602   4.118   3.758   7.210 -0.2417 -0.1534 -0.0740
18485THY    HA652603   4.119   3.864   7.235 -0.1082 -1.5789  0.2830
18486THY      O52604   9.362   8.689   4.055  0.7289 -0.1496 -0.0941
18486THY     HO52605   9.382   8.603   4.096 -1.3711 -0.0136 -0.5583
18486THY    CA152606   9.226   8.676   4.051 -0.2075  0.8534  0.7513
18486THY    CA252607   9.148   8.701   3.939 -0.4358 -0.2449 -0.5874
18486THY    CP152608   9.209   8.727   3.803 -0.1498 -0.1206  0.1658
18486THY    HP152609   9.316   8.708   3.816 -0.1527 -0.6172 -0.2299
18486THY    CP252610   9.189   8.871   3.754 -0.7263 -0.4522 -0.6567
18486THY    HP252611   9.256   8.887   3.669  0.9132  1.0874  1.2489
18486THY    HP352612   9.219   8.940   3.834  0.2119  0.5191 -2.1508
18486THY    HP452613   9.084   8.895   3.735 -0.9555 -0.6591 -1.7965
18486THY    CP352614   9.157   8.627   3.696 -0.5133 -0.3924  0.0900
18486THY    HP552615   9.196   8.660   3.599 -1.3268  0.0005  2.3891
18486THY    HP652616   9.049   8.643   3.689 -0.8132 -1.7965 -2.0981
18486THY    HP752617   9.180   8.521   3.713  3.2986  0.5219  0.9317
18486THY    CA352618   9.007   8.707   3.954  0.5139 -0.2507 -0.3055
18486THY    HA352619   8.934   8.728   3.877 -2.0839  2.2511  0.4408
18486THY    CA452620   8.946   8.680   4.077 -0.8283 -0.5569 -0.7967
18486THY    HA452621   8.839   8.694   4.077 -0.9694 -1.1857 -1.7648
18486THY    CA552622   9.025   8.646   4.186 -0.4441 -0.0412  0.3127
18486THY    CM152623   8.968   8.606   4.323  0.1054  0.2844  0.0685
18486THY    HM152624   8.978   8.689   4.394 -0.9190  0.2960  0.1939
18486THY    HM252625   9.032   8.531   4.371  1.0147  2.1613  1.9403
18486THY    HM352626   8.864   8.572   4.324  0.1140  0.6239  0.0506
18486THY    CA652627   9.162   8.641   4.170  0.3642 -0.0536 -0.4006
18486THY    HA652628   9.230   8.630   4.254  2.2152 -1.2850  1.0683
18487THY      O52629   4.599   2.542   6.583  0.2789  0.7520 -0.3878
18487THY     HO52630   4.550   2.505   6.658 -0.7817  0.4992  0.4489
18487THY    CA152631   4.681   2.642   6.620  0.1499  0.4632 -0.1493
18487THY    CA252632   4.800   2.679   6.541  0.1444  0.0523  0.0332
18487THY    CP152633   4.822   2.615   6.407 -0.6007 -0.3519  0.3566
18487THY    HP152634   4.793   2.510   6.425  1.7501 -1.9259 -0.6456
18487THY    CP252635   4.971   2.605   6.368  0.0146  0.4603  0.1975
18487THY    HP252636   4.999   2.513   6.314  2.0638  0.3323  0.8402
18487THY    HP352637   5.032   2.617   6.459  1.9235 -0.4650 -1.6977
18487THY    HP452638   4.997   2.683   6.296  0.4215 -0.3458 -0.6515
18487THY    CP352639   4.744   2.678   6.297  0.3402  0.3321  0.3715
18487THY    HP552640   4.637   2.669   6.319  0.5477  0.5481 -2.2830
18487THY    HP652641   4.757   2.624   6.203 -1.5291  0.0285  0.3963
18487THY    HP752642   4.770   2.785   6.292  1.5031  3.0590  0.3019
18487THY    CA352643   4.876   2.789   6.584  0.3815 -0.3937 -0.0105
18487THY    HA352644   4.959   2.836   6.533 -1.6707 -2.4496  1.6558
18487THY    CA452645   4.842   2.844   6.712  0.1924 -0.2367  0.2734
18487THY    HA452646   4.899   2.924   6.756 -0.7072 -0.0987  0.8513
18487THY    CA552647   4.725   2.803   6.786  0.8378 -0.4231 -0.2718
18487THY    CM152648   4.686   2.872   6.913  0.2681  0.0220  0.1311
18487THY    HM152649   4.609   2.807   6.956 -1.0905 -0.9061  1.0705
18487THY    HM252650   4.649   2.972   6.887 -0.8442 -3.2780 -1.0223
18487THY    HM352651   4.763   2.886   6.990  1.9391 -1.2652 -1.4713
18487THY    CA652652   4.644   2.700   6.741 -0.0297  0.0886  1.1587
18487THY    HA652653   4.557   2.662   6.794  0.7134 -1.7723 -3.9675
18488THY      O52654   4.325   2.981   6.235 -0.5294 -0.4522 -0.6006
18488THY     HO52655   4.338   3.028   6.151  0.7509 -0.3065 -0.6585
18488THY    CA152656   4.328   3.081   6.327 -0.4930 -0.9265 -0.2784
18488THY    CA252657   4.322   3.066   6.470  0.1732  1.0402  0.1959
18488THY    CP152658   4.304   2.935   6.541 -0.1420  0.2212 -0.0335
18488THY    HP152659   4.275   2.863   6.464  0.5756 -0.5295  0.4623
18488THY    CP252660   4.195   2.934   6.649  0.6323 -0.3083  0.4074
18488THY    HP252661   4.171   2.829   6.670  1.2673 -0.3991  0.2382
18488THY    HP352662   4.101   2.974   6.610 -1.0317  0.2578 -2.6316
18488THY    HP452663   4.224   2.993   6.737  2.5083 -0.5200 -0.1325
18488THY    CP352664   4.429   2.894   6.604  0.0414 -0.5134 -0.0852
18488THY    HP552665   4.430   2.787   6.628 -1.2192  1.6883  0.3337
18488THY    HP652666   4.459   2.952   6.692  1.6225 -1.3753  0.4893
18488THY    HP752667   4.520   2.907   6.544  1.0417  1.3224  1.9727
18488THY    CA352668   4.342   3.185   6.543  0.2373  0.7661  0.4017
18488THY    HA352669   4.343   3.179   6.652 -0.6721  0.7778  0.2088
18488THY    CA452670   4.352   3.307   6.478 -0.8693  0.2437 -0.6214
18488THY    HA452671   4.343   3.396   6.541 -0.1845  2.0483 -1.7746
18488THY    CA552672   4.346   3.316   6.340  0.3652  0.5018 -0.3227
18488THY    CM152673   4.362   3.450   6.272  0.3496 -0.5125 -0.3676
18488THY    HM152674   4.279   3.516   6.300 -1.6373 -1.1127 -2.4773
18488THY    HM252675   4.359   3.446   6.162  0.8091 -0.4905 -2.4621
18488THY    HM352676   4.456   3.499   6.300 -0.1677  0.0343  0.3262
18488THY    CA652677   4.335   3.207   6.263 -0.5813 -0.2685  0.2073
18488THY    HA652678   4.326   3.213   6.155  1.9953 -0.5911 -0.6138
18489THY      O52679   7.693   1.905   3.084 -0.4828  0.1601 -0.4281
18489THY     HO52680   7.762   1.874   3.023 -0.1262  0.9774 -1.3286
18489THY    CA152681   7.590   1.951   3.027  0.6334  0.4783 -0.2385
18489THY    CA252682   7.500   2.022   3.102  0.5514 -0.9239 -0.5197
18489THY    CP152683   7.533   2.042   3.252  0.8636 -0.0692  0.1079
18489THY    HP152684   7.579   1.953   3.295  0.4148  1.8568  0.7452
18489THY    CP252685   7.417   2.062   3.340  0.1360 -0.4100 -0.3273
18489THY    HP252686   7.345   1.980   3.334 -1.2691  1.3790  0.6844
18489THY    HP352687   7.361   2.150   3.304 -1.6045 -0.3678 -1.3602
18489THY    HP452688   7.434   2.076   3.447 -3.2291  0.2332 -0.1203
18489THY    CP352689   7.641   2.148   3.277 -0.4915 -0.5411 -0.0898
18489THY    HP552690   7.584   2.241   3.264  0.0845  0.2335  0.3790
18489THY    HP652691   7.719   2.133   3.201 -0.2581 -0.0510 -1.5099
18489THY    HP752692   7.676   2.142   3.381  2.5802 -1.5263 -0.8554
18489THY    CA352693   7.393   2.093   3.036  0.7269 -0.1725  0.6669
18489THY    HA352694   7.322   2.151   3.094  1.2027  0.3204  0.7581
18489THY    CA452695   7.377   2.074   2.900  0.3405 -0.0176 -0.3790
18489THY    HA452696   7.282   2.103   2.855 -0.3054  1.0688 -0.7594
18489THY    CA552697   7.467   2.004   2.824 -0.2708  0.6031 -0.5988
18489THY    CM152698   7.446   1.988   2.677 -0.5079 -0.0315 -0.7180
18489THY    HM152699   7.535   2.009   2.617 -0.9483 -0.5655 -0.3362
18489THY    HM252700   7.383   2.067   2.634  0.7553 -3.6336 -1.5056
18489THY    HM352701   7.404   1.889   2.659  0.6177 -2.5437 -0.7969
18489THY    CA652702   7.580   1.947   2.881  0.0596 -0.6425 -0.4072
18489THY    HA652703   7.650   1.901   2.812 -0.7272 -1.5743 -0.2402
18490THY      O52704   5.853   6.018   5.565 -0.0009 -0.0884  0.4508
18490THY     HO52705   5.795   6.060   5.631 -0.5703 -0.7248  0.6745
18490THY    CA152706   5.926   5.944   5.645  0.2377 -0.3814  0.7552
18490THY    CA252707   6.008   5.841   5.598  0.5521 -0.0268 -0.7235
18490THY    CP152708   6.034   5.822   5.450  0.3355 -0.1389  0.0929
18490THY    HP152709   6.027   5.921   5.402  0.9650  0.7035  0.5591
18490THY    CP252710   5.928   5.730   5.390  0.3099  0.5206  0.4670
18490THY    HP252711   5.952   5.718   5.283  1.1924  0.6572  0.9291
18490THY    HP352712   5.828   5.774   5.395  0.8307  1.3513  1.6000
18490THY    HP452713   5.933   5.638   5.449  1.5334  2.0892  1.4771
18490THY    CP352714   6.180   5.770   5.411 -0.2513 -0.3484  0.1160
18490THY    HP552715   6.192   5.662   5.420 -0.7181 -2.8496 -0.1947
18490THY    HP652716   6.252   5.818   5.479 -0.6106  0.0883  0.0467
18490THY    HP752717   6.200   5.782   5.304  0.2299 -0.3438 -0.6179
18490THY    CA352718   6.080   5.759   5.688  0.2620 -0.4860 -0.1160
18490THY    HA352719   6.125   5.665   5.656  2.7558 -2.1846  1.4935
18490THY    CA452720   6.076   5.794   5.824 -0.3157 -0.0365 -0.0088
18490THY    HA452721   6.115   5.725   5.899 -1.9921 -1.2503 -2.4313
18490THY    CA552722   6.004   5.905   5.868  0.0354 -0.7585  0.0105
18490THY    CM152723   5.991   5.939   6.010 -0.5384  0.5670  0.1900
18490THY    HM152724   6.060   5.884   6.075 -0.9546  0.4536 -0.4805
18490THY    HM252725   5.895   5.911   6.056 -0.1271  1.0072 -0.5650
18490THY    HM352726   6.017   6.045   6.014 -0.3777 -0.9327  0.2295
18490THY    CA652727   5.927   5.984   5.779 -0.0977 -0.7708  0.0322
18490THY    HA652728   5.865   6.064   5.818  0.1279 -0.0725 -0.1237
18491THY      O52729   7.960   1.067   8.120  0.1742 -0.1435  0.2670
18491THY     HO52730   8.021   0.992   8.132 -1.4627  1.5523 -0.8608
18491THY    CA152731   7.911   1.063   7.996 -0.0805 -0.0253 -0.5699
18491THY    CA252732   7.805   1.146   7.953 -0.1828 -0.1156 -0.4920
18491THY    CP152733   7.736   1.234   8.050 -0.7956  0.1417  0.3418
18491THY    HP152734   7.781   1.229   8.150 -1.4643  0.4064 -0.8469
18491THY    CP252735   7.581   1.198   8.056 -0.1864 -0.8346 -0.4468
18491THY    HP252736   7.540   1.193   7.954 -0.0934 -0.8037 -2.2874
18491THY    HP352737   7.526   1.280   8.104  0.1870 -1.4575  0.1902
18491THY    HP452738   7.563   1.109   8.117  1.8084 -0.5387 -0.6959
18491THY    CP352739   7.758   1.374   8.001 -0.0292 -0.2102 -0.0125
18491THY    HP552740   7.719   1.445   8.074  0.3492 -0.8182  0.8400
18491THY    HP652741   7.715   1.397   7.902  0.6556 -0.6323 -0.5100
18491THY    HP752742   7.866   1.389   8.000  0.1521 -0.6860 -1.2228
18491THY    CA352743   7.759   1.143   7.816 -0.2933 -0.6464  0.2876
18491THY    HA352744   7.675   1.203   7.781  0.1901 -0.3691  1.1358
18491THY    CA452745   7.828   1.057   7.724  0.7363  0.1415  0.0718
18491THY    HA452746   7.811   1.049   7.617 -0.0835  0.3834 -1.8021
18491THY    CA552747   7.931   0.973   7.770  0.0714  0.4717 -0.0696
18491THY    CM152748   8.014   0.885   7.676 -0.0091  0.0801 -0.6190
18491THY    HM152749   8.063   0.809   7.738 -0.0346  0.2013 -0.5379
18491THY    HM252750   8.092   0.943   7.626 -1.4584 -2.0601 -0.3826
18491THY    HM352751   7.964   0.852   7.584 -2.8109  1.7329 -1.3125
18491THY    CA652752   7.979   0.987   7.903 -0.3933 -0.3465  0.4719
18491THY    HA652753   8.068   0.934   7.934  0.0141  0.9401  1.8413
18492THY      O52754   2.948   3.646   2.433  0.0255  0.4229 -0.3801
18492THY     HO52755   2.944   3.580   2.505  0.3153  0.3329 -0.4948
18492THY    CA152756   2.903   3.765   2.468 -0.4506  0.2427 -0.6731
18492THY    CA252757   2.949   3.874   2.392 -0.0802  0.4580  0.4188
18492THY    CP152758   3.051   3.857   2.279  0.2794 -0.5073 -0.0268
18492THY    HP152759   3.048   3.754   2.240 -1.3824  2.1251 -1.0558
18492THY    CP252760   3.191   3.885   2.327  0.6894 -0.2344  0.7053
18492THY    HP252761   3.195   3.991   2.357 -0.5624 -0.9421  0.9743
18492THY    HP352762   3.261   3.875   2.244  1.5825  0.7107 -1.4912
18492THY    HP452763   3.226   3.821   2.410  2.6811 -3.1423 -2.3161
18492THY    CP352764   3.000   3.933   2.158 -1.1379  0.8605  0.1428
18492THY    HP552765   2.898   3.898   2.135 -1.3974  2.2007 -0.0295
18492THY    HP652766   3.071   3.930   2.074  1.5768  3.0215 -0.3575
18492THY    HP752767   2.983   4.038   2.185 -1.0033  1.4667  0.0118
18492THY    CA352768   2.910   4.005   2.445 -0.3531  0.6016 -0.2987
18492THY    HA352769   2.926   4.097   2.388 -1.8364  0.0383 -0.3563
18492THY    CA452770   2.838   4.020   2.564 -0.1729 -0.2249 -0.1460
18492THY    HA452771   2.805   4.119   2.593  1.9139 -0.4462  0.6617
18492THY    CA552772   2.784   3.906   2.624 -0.3957  0.1733 -0.7563
18492THY    CM152773   2.701   3.915   2.740 -0.4425 -0.2547 -0.3153
18492THY    HM152774   2.665   4.016   2.761  2.7501  0.6472  0.7353
18492THY    HM252775   2.737   3.889   2.840 -0.5583 -0.0649  0.2364
18492THY    HM352776   2.617   3.845   2.731  0.5694  0.1230 -1.6139
18492THY    CA652777   2.829   3.777   2.588 -0.2273  0.1479  0.6022
18492THY    HA652778   2.787   3.692   2.641  0.3274 -1.3407 -0.6556
18493THY      O52779   6.755   5.875   7.258  0.2251  0.7235  0.6468
18493THY     HO52780   6.762   5.957   7.310  0.8665 -1.0391  1.7630
18493THY    CA152781   6.758   5.914   7.123 -0.6016 -0.4764  0.5546
18493THY    CA252782   6.817   5.835   7.027  0.3090  0.1049  1.2522
18493THY    CP152783   6.896   5.713   7.072 -0.0612 -0.6298 -0.7468
18493THY    HP152784   6.871   5.685   7.175  0.6435  0.0520  1.0057
18493THY    CP252785   7.043   5.753   7.079 -0.2956 -0.1492  0.0611
18493THY    HP252786   7.064   5.827   7.157 -0.9486  0.5284 -0.4517
18493THY    HP352787   7.083   5.796   6.986  0.7862 -0.7469 -2.0780
18493THY    HP452788   7.099   5.659   7.088 -0.7905 -2.1205 -0.4848
18493THY    CP352789   6.870   5.593   6.989  0.7036 -0.4883  0.0321
18493THY    HP552790   6.895   5.506   7.051  0.1338 -0.1596  0.0962
18493THY    HP652791   6.929   5.588   6.896  1.5632 -0.0017  0.9184
18493THY    HP752792   6.764   5.586   6.962 -0.1631  2.0409  1.9923
18493THY    CA352793   6.820   5.869   6.891  0.4474  0.1370 -0.2359
18493THY    HA352794   6.876   5.811   6.818  1.5902 -0.7844  1.8907
18493THY    CA452795   6.766   5.989   6.856 -0.5081  0.5473 -0.1967
18493THY    HA452796   6.774   6.014   6.751  1.0734 -0.0197 -2.7233
18493THY    CA552797   6.698   6.075   6.948  0.4806  0.1105 -0.1861
18493THY    CM152798   6.615   6.193   6.908  0.3309 -1.0218  0.3415
18493THY    HM152799   6.664   6.281   6.866 -0.6701 -2.6276  0.1839
18493THY    HM252800   6.564   6.220   7.001 -0.0371 -0.7735 -1.1198
18493THY    HM352801   6.540   6.159   6.835 -0.9658  1.6008 -2.9849
18493THY    CA652802   6.694   6.027   7.081  0.0945 -0.3184  0.0327
18493THY    HA652803   6.654   6.091   7.159  1.5017  0.0236  0.5352
18494THY      O52804   7.462   5.861   3.351 -0.1221 -0.1370 -0.5191
18494THY     HO52805   7.472   5.863   3.254 -2.0538 -0.3724  1.1366
18494THY    CA152806   7.505   5.984   3.398 -0.0367 -0.6245 -0.0883
18494THY    CA252807   7.449   6.032   3.522  0.2888 -0.4729  0.1163
18494THY    CP152808   7.353   5.943   3.600 -0.1917  0.0529 -0.2509
18494THY    HP152809   7.335   5.852   3.543  2.0530 -1.9241  0.4491
18494THY    CP252810   7.221   6.025   3.626  0.4247  0.4019 -0.5605
18494THY    HP252811   7.193   6.097   3.548 -3.2006 -1.8951 -4.0969
18494THY    HP352812   7.220   6.087   3.716 -1.1195  0.8459 -1.1958
18494THY    HP452813   7.139   5.953   3.624 -2.5978  0.1551  2.6070
18494THY    CP352814   7.414   5.890   3.735  0.7615  0.6717 -0.4237
18494THY    HP552815   7.424   5.968   3.811 -0.8780  1.4024 -0.8847
18494THY    HP652816   7.514   5.856   3.705 -0.5319 -3.9017 -0.8440
18494THY    HP752817   7.360   5.799   3.763  0.8234 -1.3579 -1.1354
18494THY    CA352818   7.492   6.158   3.562  0.1549 -0.0325  0.7573
18494THY    HA352819   7.455   6.214   3.647  2.8693 -0.4328  3.3918
18494THY    CA452820   7.576   6.224   3.479 -0.2098  0.0425 -0.0228
18494THY    HA452821   7.615   6.321   3.508 -3.5370 -0.9924  1.7878
18494THY    CA552822   7.626   6.181   3.356  0.5362 -0.0088 -0.7634
18494THY    CM152823   7.727   6.250   3.278 -0.5251 -0.0284  0.2340
18494THY    HM152824   7.685   6.348   3.250 -0.5519  0.9598  0.5213
18494THY    HM252825   7.757   6.202   3.185  0.5423  0.3312  0.1857
18494THY    HM352826   7.809   6.270   3.348 -1.3575  0.5883  1.6636
18494THY    CA652827   7.586   6.055   3.315  0.2309  0.9150 -0.1794
18494THY    HA652828   7.617   6.012   3.220 -0.4284  1.5368 -2.1724
18495THY      O52829   5.859   0.777   6.052  0.1405  0.2129  0.1639
18495THY     HO52830   5.801   0.725   5.994 -0.1912 -0.2139  0.9932
18495THY    CA152831   5.884   0.894   5.992  0.7100  0.2975  0.3829
18495THY    CA252832   5.972   0.989   6.042  0.7539 -0.1743 -0.2805
18495THY    CP152833   6.078   0.938   6.140 -0.8844  0.2136  0.9937
18495THY    HP152834   6.053   0.845   6.193  0.7146 -1.8919 -0.7590
18495THY    CP252835   6.109   1.038   6.252  0.2432  0.7114  0.5594
18495THY    HP252836   6.019   1.066   6.306  0.6262  2.1889 -0.8705
18495THY    HP352837   6.160   1.129   6.219 -1.4994  3.0606  2.4973
18495THY    HP452838   6.176   0.995   6.328  0.2247  1.9446  2.5916
18495THY    CP352839   6.210   0.909   6.063 -0.3674 -0.2984 -0.4610
18495THY    HP552840   6.196   0.838   5.981  0.3782 -1.1831  0.3807
18495THY    HP652841   6.294   0.882   6.128 -0.7337 -0.1877 -1.3541
18495THY    HP752842   6.232   1.005   6.014 -2.6174 -1.5979 -0.5283
18495THY    CA352843   5.962   1.122   5.998 -0.4690  0.3904 -0.1204
18495THY    HA352844   6.029   1.205   6.018  0.4609  1.0654 -1.0105
18495THY    CA452845   5.855   1.164   5.910 -0.3513  0.0332 -0.6240
18495THY    HA452846   5.847   1.268   5.880  0.2903  0.1432 -0.5381
18495THY    CA552847   5.772   1.062   5.860  0.3347 -0.2531  0.1647
18495THY    CM152848   5.660   1.086   5.758 -0.4843  0.1777  0.4267
18495THY    HM152849   5.690   1.030   5.668 -0.0692  2.2840 -3.0352
18495THY    HM252850   5.646   1.187   5.719 -0.1242 -1.6275 -0.1670
18495THY    HM352851   5.566   1.038   5.787  1.3590  3.5906 -1.4730
18495THY    CA652852   5.786   0.926   5.903 -0.3085 -0.7773 -0.5642
18495THY    HA652853   5.721   0.846   5.869  0.9207  0.8406 -2.3132
18496THY      O52854   4.011   2.759   7.336  0.4716 -0.4551 -0.3305
18496THY     HO52855   4.040   2.683   7.282  2.4894  0.8840 -0.5963
18496THY    CA152856   4.008   2.716   7.462  0.1694  0.9620  0.0118
18496THY    CA252857   4.002   2.800   7.570 -0.5824 -0.5495  0.4989
18496THY    CP152858   3.981   2.949   7.541 -0.2184  0.0595  0.5560
18496THY    HP152859   3.964   2.971   7.435 -1.4395  0.1952  0.3297
18496THY    CP252860   4.105   3.035   7.581 -0.8934 -0.1329  0.2279
18496THY    HP252861   4.085   3.140   7.555  0.7253 -2.9762 -0.0524
18496THY    HP352862   4.192   3.013   7.518 -1.0292 -0.6921  1.2112
18496THY    HP452863   4.122   3.029   7.689  1.1311 -0.4386 -0.1882
18496THY    CP352864   3.855   3.008   7.613  0.3129  0.0412 -0.1901
18496THY    HP552865   3.763   2.953   7.591 -0.3068 -2.2846  1.6246
18496THY    HP652866   3.849   3.115   7.591  0.9361  0.2890 -0.0988
18496THY    HP752867   3.869   3.001   7.721  1.1194  0.0426  1.0799
18496THY    CA352868   4.002   2.747   7.700 -0.4254 -0.3590  0.4784
18496THY    HA352869   3.995   2.815   7.785 -0.5714 -0.0633  0.1011
18496THY    CA452870   3.998   2.606   7.715  0.1691 -0.4738 -0.3709
18496THY    HA452871   3.993   2.566   7.816 -1.6806 -0.4019 -0.0742
18496THY    CA552872   4.001   2.522   7.611  0.6906  0.7058  0.1881
18496THY    CM152873   4.009   2.369   7.618 -0.1495  0.4809 -0.3293
18496THY    HM152874   3.984   2.332   7.718 -1.0018  1.4454  2.5565
18496THY    HM252875   4.107   2.333   7.587 -0.2528  2.0057 -2.0486
18496THY    HM352876   3.937   2.322   7.550  3.0373 -0.8774 -3.6921
18496THY    CA652877   3.999   2.576   7.484  0.4225 -0.2084  0.2045
18496THY    HA652878   3.995   2.511   7.396  1.9531  0.0666 -0.3063
18497THY      O52879   5.879   2.954   1.942 -0.4744 -0.2526 -1.0299
18497THY     HO52880   5.867   3.050   1.944 -0.7058  0.5363 -1.0717
18497THY    CA152881   5.786   2.896   1.862 -0.5537 -0.6305 -0.1398
18497THY    CA252882   5.793   2.755   1.830 -0.6318 -0.3156 -0.1055
18497THY    CP152883   5.893   2.660   1.897 -0.1510 -0.2352 -0.3581
18497THY    HP152884   5.924   2.697   1.995 -0.0759  0.4083 -2.0324
18497THY    CP252885   6.016   2.626   1.816  0.0800  0.3166 -0.3830
18497THY    HP252886   6.086   2.574   1.883 -1.0022 -0.4621 -3.0271
18497THY    HP352887   6.066   2.718   1.787  0.3340 -1.4219 -1.0322
18497THY    HP452888   6.008   2.565   1.725  2.3881 -1.7701  2.1980
18497THY    CP352889   5.820   2.529   1.930 -0.4446  0.0523  0.1635
18497THY    HP552890   5.739   2.544   2.002  1.2819  2.2213 -0.4146
18497THY    HP652891   5.895   2.462   1.974 -1.1617  3.2123  1.2979
18497THY    HP752892   5.786   2.484   1.835 -1.0086 -0.3340  1.3576
18497THY    CA352893   5.709   2.707   1.721 -0.7002  0.0159 -0.5052
18497THY    HA352894   5.716   2.604   1.686  1.6597  1.1673 -0.8020
18497THY    CA452895   5.610   2.798   1.680 -0.2016 -0.0467  0.2747
18497THY    HA452896   5.539   2.764   1.605 -0.4649  0.1830  0.3146
18497THY    CA552897   5.594   2.926   1.734  0.5376  0.4176  0.2156
18497THY    CM152898   5.481   3.017   1.695 -0.1424 -0.3962  0.5027
18497THY    HM152899   5.437   2.979   1.603 -1.7847  0.4885  0.1499
18497THY    HM252900   5.529   3.109   1.662 -2.1914 -2.1530  1.0232
18497THY    HM352901   5.404   3.029   1.772 -0.5067 -0.8044  0.8022
18497THY    CA652902   5.689   2.980   1.815 -0.7321 -0.0692  0.8031
18497THY    HA652903   5.684   3.082   1.851 -1.0046  1.5483  0.2513
18498THY      O52904   0.535   8.872   6.387 -0.4219 -0.4807  0.3086
18498THY     HO52905   0.591   8.893   6.464 -0.1419 -0.9491  1.3807
18498THY    CA152906   0.609   8.788   6.306  0.0295 -0.2411 -0.2623
18498THY    CA252907   0.561   8.748   6.179  0.7272 -0.1567  0.1698
18498THY    CP152908   0.421   8.798   6.133 -0.1856  0.3074 -0.0840
18498THY    HP152909   0.392   8.889   6.186 -1.8100  0.5421 -0.7155
18498THY    CP252910   0.322   8.677   6.153  0.2062  0.1979 -0.0423
18498THY    HP252911   0.341   8.633   6.252  0.3246  0.0264 -0.3779
18498THY    HP352912   0.331   8.597   6.079  0.4405 -0.5455  0.6557
18498THY    HP452913   0.218   8.712   6.148  0.2274  0.8538  0.1447
18498THY    CP352914   0.427   8.830   5.976  0.2478 -0.0742  0.6160
18498THY    HP552915   0.483   8.923   5.967  0.3747 -0.3385  0.5144
18498THY    HP652916   0.326   8.857   5.943 -0.1554 -0.4103 -1.1737
18498THY    HP752917   0.467   8.746   5.919  2.1775  2.3046 -0.1930
18498THY    CA352918   0.634   8.654   6.105 -0.3070 -0.2965 -0.3742
18498THY    HA352919   0.585   8.608   6.020 -2.5943  0.7715 -0.0882
18498THY    CA452920   0.754   8.610   6.155  0.0301 -0.5189  0.0037
18498THY    HA452921   0.800   8.528   6.101  0.6391  2.8545 -2.0494
18498THY    CA552922   0.800   8.647   6.283 -0.5116 -0.0074  0.4043
18498THY    CM152923   0.938   8.612   6.315  0.0129  0.6901 -0.2459
18498THY    HM152924   0.979   8.653   6.408  0.2680  0.7218 -0.5721
18498THY    HM252925   1.011   8.634   6.236 -1.0114 -0.0797  0.4808
18498THY    HM352926   0.942   8.504   6.329  3.2755 -1.0626 -0.4866
18498THY    CA652927   0.732   8.741   6.357  0.6628 -0.8699 -0.1633
18498THY    HA652928   0.774   8.790   6.444 -0.4363 -1.5167  2.0323
18499THY      O52929   8.915   0.471   4.435  0.3545  0.0254  0.2908
18499THY     HO52930   8.927   0.403   4.504  0.8508 -2.4168 -2.2537
18499THY    CA152931   8.863   0.576   4.497 -0.2467  0.4429 -0.6761
18499THY    CA252932   8.842   0.700   4.429  0.3636 -1.0442  0.3360
18499THY    CP152933   8.874   0.716   4.283  0.4477  0.5571 -0.8252
18499THY    HP152934   8.830   0.633   4.225  1.2375 -0.6283 -0.4485
18499THY    CP252935   9.030   0.721   4.264 -0.2572  0.0437  0.5663
18499THY    HP252936   9.065   0.721   4.160 -0.6660 -0.0959  0.2691
18499THY    HP352937   9.079   0.632   4.305 -1.4648 -1.4759 -0.8538
18499THY    HP452938   9.067   0.808   4.321 -0.0097  1.8776 -0.6847
18499THY    CP352939   8.827   0.845   4.216  0.9875 -0.0220 -0.3101
18499THY    HP552940   8.729   0.873   4.257  2.0275  1.7875  0.8780
18499THY    HP652941   8.817   0.828   4.108  0.1299  0.0081 -0.0412
18499THY    HP752942   8.887   0.935   4.231  0.8537 -0.2909 -0.1762
18499THY    CA352943   8.805   0.812   4.506  1.5672 -0.2463  0.0307
18499THY    HA352944   8.806   0.909   4.459 -0.0487  1.2283  0.8242
18499THY    CA452945   8.773   0.792   4.642 -0.1955 -0.3621 -0.2950
18499THY    HA452946   8.732   0.875   4.698  0.1885 -0.7356  0.1542
18499THY    CA552947   8.801   0.674   4.714 -0.2127  0.0684  0.3043
18499THY    CM152948   8.786   0.658   4.864 -0.1382 -0.4542  0.0388
18499THY    HM152949   8.852   0.579   4.900  1.0196  0.7183  1.4773
18499THY    HM252950   8.687   0.631   4.902  0.8845  2.7051  0.3456
18499THY    HM352951   8.817   0.755   4.905 -0.5557 -1.2418  0.5267
18499THY    CA652952   8.842   0.566   4.639  0.6443 -0.2904 -0.3409
18499THY    HA652953   8.879   0.477   4.689  1.3918 -3.9814 -2.2877
18500THY      O52954   4.858   5.198   5.998  0.3820 -0.2404 -0.1037
18500THY     HO52955   4.855   5.152   6.084  2.3267 -0.7452 -1.2831
18500THY    CA152956   4.874   5.330   6.033  0.4660 -0.2839  1.2285
18500THY    CA252957   4.881   5.418   5.928  0.2996  0.0983 -0.0350
18500THY    CP152958   4.869   5.359   5.779  0.0102  0.8883 -0.1570
18500THY    HP152959   4.921   5.263   5.779 -0.8711  1.6745 -0.6558
18500THY    CP252960   4.940   5.448   5.679  0.2148  0.2518  0.5644
18500THY    HP252961   5.036   5.480   5.721 -0.0806  0.5827  1.0292
18500THY    HP352962   4.884   5.541   5.661  0.5945 -0.0629  0.7363
18500THY    HP452963   4.969   5.405   5.582 -1.5171 -0.6089  1.2290
18500THY    CP352964   4.722   5.323   5.739 -0.1212 -0.3246 -0.6796
18500THY    HP552965   4.717   5.264   5.647  0.9735  0.3245 -1.8333
18500THY    HP652966   4.650   5.405   5.737 -0.1618 -0.3881 -0.7164
18500THY    HP752967   4.674   5.260   5.814  0.2335  1.4855  1.0762
18500THY    CA352968   4.898   5.555   5.951 -0.3525 -0.0094  0.6113
18500THY    HA352969   4.891   5.626   5.869 -0.8601 -1.2051 -0.7628
18500THY    CA452970   4.905   5.599   6.083 -0.0028 -0.4992  0.0008
18500THY    HA452971   4.906   5.706   6.105  0.1179 -2.2885  0.3968
18500THY    CA552972   4.881   5.507   6.196 -0.4881  0.3037 -0.3505
18500THY    CM152973   4.873   5.560   6.344 -0.1358  0.2141 -0.0291
18500THY    HM152974   4.963   5.540   6.403  0.0167  0.2779  0.7835
18500THY    HM252975   4.782   5.519   6.389 -0.5143 -0.4452  0.0709
18500THY    HM352976   4.871   5.670   6.335  1.2332  1.0225  0.0937
18500THY    CA652977   4.862   5.371   6.169  0.0751 -0.2914 -0.8884
18500THY    HA652978   4.829   5.297   6.241  1.4641  0.2666 -1.0032
18501THY      O52979   2.821   7.527   4.835  0.1196 -0.0273 -0.2208
18501THY     HO52980   2.895   7.576   4.796  0.9344 -0.0593 -1.4264
18501THY    CA152981   2.812   7.560   4.965 -0.4573 -0.3136 -0.1180
18501THY    CA252982   2.771   7.469   5.067  0.6217  0.7306  0.2304
18501THY    CP152983   2.727   7.333   5.027  0.2397 -0.0041 -0.4137
18501THY    HP152984   2.742   7.331   4.919 -0.1908 -0.0658 -0.3570
18501THY    CP252985   2.578   7.298   5.058 -0.1282  0.1180 -0.0021
18501THY    HP252986   2.508   7.368   5.010 -1.9892  1.0476 -1.1469
18501THY    HP352987   2.554   7.293   5.165  0.2769  0.1910 -0.4850
18501THY    HP452988   2.552   7.205   5.007  0.5819  1.3768 -0.9212
18501THY    CP352989   2.815   7.228   5.103  0.4410 -0.2251  0.3674
18501THY    HP552990   2.795   7.232   5.211 -1.9749 -0.5369 -1.3028
18501THY    HP652991   2.921   7.252   5.100  0.2846  2.3040  1.7338
18501THY    HP752992   2.784   7.132   5.060 -3.1448  0.6390  0.9928
18501THY    CA352993   2.769   7.511   5.206 -0.2947 -0.2410 -0.4473
18501THY    HA352994   2.737   7.447   5.287 -1.1537  0.1714  0.4852
18501THY    CA452995   2.810   7.643   5.231  0.1298 -0.6792  0.2827
18501THY    HA452996   2.812   7.677   5.334  0.3503 -0.0417 -1.5632
18501THY    CA552997   2.837   7.735   5.133 -0.1482  0.1411  0.8079
18501THY    CM152998   2.874   7.874   5.160 -0.0750  0.3355  0.1602
18501THY    HM152999   2.983   7.868   5.168 -0.1395  1.6362  0.3169
18501THY    HM253000   2.827   7.915   5.251  0.0878  0.9046 -0.8946
18501THY    HM353001   2.852   7.937   5.073  1.3186  0.6195  1.0816
18501THY    CA653002   2.841   7.690   4.997  0.1589  0.3182 -0.0750
18501THY    HA653003   2.863   7.760   4.917 -0.3699  0.4274  0.2243
18502THY      O53004   0.912   3.895   5.299  0.1250 -0.2969 -0.0800
18502THY     HO53005   0.823   3.897   5.260  0.0556 -0.1152  1.0869
18502THY    CA153006   0.973   3.780   5.267 -0.0756  0.1107 -0.5974
18502THY    CA253007   1.097   3.744   5.321 -0.1118  0.2244  0.4950
18502THY    CP153008   1.163   3.842   5.417 -0.6003 -0.1322 -0.1736
18502THY    HP153009   1.123   3.943   5.401 -0.4976 -1.6887 -0.3545
18502THY    CP253010   1.316   3.852   5.387 -0.1373  0.1279 -0.0701
18502THY    HP253011   1.351   3.825   5.287  0.3398  1.1017 -3.6563
18502THY    HP353012   1.364   3.776   5.451  1.0304 -1.6976 -0.9300
18502THY    HP453013   1.357   3.949   5.417  0.5524 -0.2168 -0.2462
18502THY    CP353014   1.138   3.810   5.563  0.3451 -0.0756  0.2591
18502THY    HP553015   1.042   3.857   5.589  0.0596 -2.6537  1.2163
18502THY    HP653016   1.228   3.840   5.619  0.8028 -1.3340  1.3272
18502THY    HP753017   1.125   3.703   5.581  0.3579  0.9422  0.4124
18502THY    CA353018   1.147   3.613   5.296  0.8714  0.1826  0.0681
18502THY    HA353019   1.240   3.581   5.342  1.2023  0.0278  0.7795
18502THY    CA453020   1.068   3.524   5.219 -0.1293  0.5251 -0.4319
18502THY    HA453021   1.101   3.421   5.207 -2.7754 -3.0369 -1.0787
18502THY    CA553022   0.953   3.568   5.155 -0.0014 -0.3136  0.2904
18502THY    CM153023   0.875   3.474   5.070  0.1273 -0.4212  0.6767
18502THY    HM153024   0.853   3.538   4.984 -1.2512 -0.2776  0.4206
18502THY    HM253025   0.786   3.430   5.116  3.0967  4.3156 -1.2493
18502THY    HM353026   0.944   3.399   5.030  1.7425  1.6803  0.9262
18502THY    CA653027   0.902   3.700   5.178  0.1131 -0.7163  0.3549
18502THY    HA653028   0.807   3.737   5.141  1.0564 -2.0610  1.5601
18503THY      O53029   8.474   3.368   5.027  0.3840 -0.7799 -0.2626
18503THY     HO53030   8.478   3.303   5.099  0.7095  0.8638  1.4812
18503THY    CA153031   8.601   3.407   5.001 -0.9492  0.2382  0.8740
18503THY    CA253032   8.639   3.536   4.960  0.6006  0.4234 -0.2759
18503THY    CP153033   8.535   3.655   4.944 -0.1118  1.2444  0.0730
18503THY    HP153034   8.440   3.615   4.983  1.1406  3.3088 -1.1083
18503THY    CP253035   8.516   3.695   4.796 -0.7815  0.0235  0.0180
18503THY    HP253036   8.614   3.685   4.749 -0.4051  0.6895  0.4915
18503THY    HP353037   8.489   3.798   4.767 -1.2728 -1.2496 -0.4417
18503THY    HP453038   8.452   3.626   4.739 -0.1099 -1.4354  0.5567
18503THY    CP353039   8.587   3.778   5.021  0.1007  0.3355 -0.1600
18503THY    HP553040   8.600   3.747   5.125  3.5873 -0.2064 -0.8779
18503THY    HP653041   8.503   3.849   5.017  1.0529 -0.1234  0.9848
18503THY    HP753042   8.676   3.824   4.977  0.2452  0.8518  0.0537
18503THY    CA353043   8.770   3.554   4.919 -0.1105 -0.3743 -0.1930
18503THY    HA353044   8.816   3.642   4.874  1.5678  0.4606 -0.5956
18503THY    CA453045   8.860   3.444   4.915  0.1488  0.2578  0.4478
18503THY    HA453046   8.962   3.461   4.881 -0.0121  0.1664  1.3049
18503THY    CA553047   8.822   3.321   4.965  0.2377  0.0138  0.0633
18503THY    CM153048   8.917   3.214   4.992 -0.2036  0.2200 -0.0894
18503THY    HM153049   8.876   3.139   5.061 -0.5812  0.8915  0.7206
18503THY    HM253050   9.011   3.233   5.043  1.3717 -1.1597 -3.3330
18503THY    HM353051   8.947   3.170   4.896  1.4021  0.0195  1.3696
18503THY    CA653052   8.692   3.301   5.003  0.3401  0.3208 -0.2485
18503THY    HA653053   8.661   3.202   5.034 -2.0485 -0.9116  0.0311
18504THY      O53054   2.899   7.854   3.715  0.1226 -0.4510  0.3739
18504THY     HO53055   2.928   7.825   3.627  0.4598 -0.4349  0.6634
18504THY    CA153056   2.945   7.978   3.741  0.1673  0.6561 -0.0046
18504THY    CA253057   2.930   8.040   3.862 -0.4702  0.2674  0.1370
18504THY    CP153058   2.855   7.974   3.977 -0.2249  0.1780  0.0885
18504THY    HP153059   2.766   7.925   3.938 -1.8389  0.8113  2.3640
18504THY    CP253060   2.799   8.077   4.076  0.5824 -0.9318  0.4386
18504THY    HP253061   2.868   8.108   4.156 -2.4902  2.0405  0.2539
18504THY    HP353062   2.715   8.041   4.137  0.3714  0.2209  2.6890
18504THY    HP453063   2.763   8.170   4.030  0.2966  2.3769  2.1311
18504THY    CP353064   2.943   7.874   4.051 -0.7362  0.1800  0.5512
18504THY    HP553065   2.899   7.835   4.144  0.1595  0.0183 -0.9672
18504THY    HP653066   3.045   7.908   4.071 -0.8938 -0.4673  1.4264
18504THY    HP753067   2.965   7.782   3.995  0.6414  0.2038  0.8455
18504THY    CA353068   3.003   8.160   3.883 -0.2856 -0.2915 -0.6419
18504THY    HA353069   3.007   8.215   3.977 -1.1329 -0.3212 -0.5201
18504THY    CA453070   3.069   8.218   3.778 -0.8560  0.0353 -0.2246
18504THY    HA453071   3.121   8.311   3.799 -0.6654 -0.1035 -0.3003
18504THY    CA553072   3.062   8.158   3.656  0.2489 -0.4740 -0.6467
18504THY    CM153073   3.113   8.241   3.546  0.4159  0.1720 -0.5418
18504THY    HM153074   3.139   8.183   3.456  0.9086  1.1983 -1.9881
18504THY    HM253075   3.209   8.289   3.569  1.5300 -3.2912 -0.8641
18504THY    HM353076   3.038   8.313   3.513 -0.8756  1.6407 -1.1535
18504THY    CA653077   3.010   8.036   3.640 -0.3017 -0.4311 -0.3864
18504THY    HA653078   3.007   7.991   3.541  0.3018 -1.2070  1.2194
18505THY      O53079   9.067   7.373   6.430 -0.3236 -0.2192 -0.2863
18505THY     HO53080   9.024   7.446   6.383  0.0704  2.5661  1.9356
18505THY    CA153081   9.086   7.424   6.556 -0.0198  0.3309 -0.4505
18505THY    CA253082   9.155   7.355   6.662 -0.1406  0.4664 -0.4482
18505THY    CP153083   9.224   7.218   6.636  0.6157  0.7574  0.0717
18505THY    HP153084   9.217   7.189   6.531  1.7796  0.5954  0.3087
18505THY    CP253085   9.151   7.113   6.717  0.0157 -0.0225 -0.4497
18505THY    HP253086   9.160   7.130   6.825 -1.6811  0.0385  0.2052
18505THY    HP353087   9.180   7.015   6.677  1.5704 -2.9019  1.0611
18505THY    HP453088   9.044   7.123   6.697 -0.2838  1.6997  0.1790
18505THY    CP353089   9.374   7.221   6.671  0.2835  0.1562 -0.0009
18505THY    HP553090   9.417   7.121   6.658  0.1157 -0.2165 -0.0255
18505THY    HP653091   9.390   7.246   6.777  2.1034  0.0559 -0.6252
18505THY    HP753092   9.431   7.285   6.604  0.0618 -1.4872 -1.4546
18505THY    CA353093   9.163   7.408   6.791  0.1276 -0.1071  0.2741
18505THY    HA353094   9.214   7.358   6.873 -0.8267  2.4492  3.1414
18505THY    CA453095   9.102   7.529   6.810  0.0487  0.0497  0.8662
18505THY    HA453096   9.104   7.568   6.911 -0.2688  0.4419 -0.1247
18505THY    CA553097   9.042   7.601   6.705  0.1260  0.9337  0.0821
18505THY    CM153098   8.970   7.736   6.737 -0.6833  0.4239 -0.2261
18505THY    HM153099   8.964   7.758   6.845  1.9137  0.5562  0.1843
18505THY    HM253100   8.868   7.738   6.699  0.1350 -1.9015  0.6215
18505THY    HM353101   9.036   7.812   6.695  2.0761  2.5426 -1.2594
18505THY    CA653102   9.041   7.556   6.580 -0.0282  0.3371  0.3728
18505THY    HA653103   9.001   7.625   6.506  0.0157 -0.4642 -0.4474
18506THY      O53104   1.386   1.594   5.016  0.9354  0.2108  0.3809
18506THY     HO53105   1.464   1.540   5.040 -0.4480  1.1987 -1.2643
18506THY    CA153106   1.286   1.561   5.101 -0.1462  0.5817  0.1121
18506THY    CA253107   1.220   1.441   5.096 -0.0855  0.2296 -0.5005
18506THY    CP153108   1.245   1.340   4.984  0.8617 -0.1712 -0.5041
18506THY    HP153109   1.354   1.339   4.971  0.7841 -1.0256  0.6257
18506THY    CP253110   1.191   1.377   4.849 -0.2651 -0.1860 -0.6048
18506THY    HP253111   1.260   1.346   4.770  0.6479  0.7620 -1.0540
18506THY    HP353112   1.185   1.486   4.841  0.8290 -0.8814 -0.5851
18506THY    HP453113   1.089   1.340   4.830 -1.7069 -0.7633  3.2182
18506THY    CP353114   1.209   1.197   5.032 -0.3485  0.2357 -0.2990
18506THY    HP553115   1.118   1.190   5.093 -0.7838 -0.1035  1.6513
18506THY    HP653116   1.291   1.168   5.098  2.0148 -2.6295 -0.6134
18506THY    HP753117   1.216   1.128   4.947  0.3362  1.1142 -1.3504
18506THY    CA353118   1.115   1.422   5.196  0.0340 -0.0306 -0.9928
18506THY    HA353119   1.047   1.337   5.195  1.4016  0.4712 -2.1431
18506THY    CA453120   1.091   1.525   5.290  0.1478  0.5498  0.5602
18506THY    HA453121   1.010   1.515   5.362 -1.3955 -1.0900  0.9032
18506THY    CA553122   1.173   1.636   5.294  0.9140 -0.2230 -0.1814
18506THY    CM153123   1.153   1.738   5.399  0.5604 -0.2937 -0.2118
18506THY    HM153124   1.148   1.707   5.504 -2.5693  0.5830  2.7550
18506THY    HM253125   1.057   1.787   5.381 -0.4189 -0.0776 -1.9507
18506THY    HM353126   1.233   1.813   5.399 -0.7787  0.8454  1.2836
18506THY    CA653127   1.267   1.656   5.197 -0.2634  0.9478  0.0976
18506THY    HA653128   1.319   1.751   5.194  0.5966 -0.7025 -0.3877
18507THY      O53129   5.677   6.415   4.048  0.2952 -0.0209  0.0891
18507THY     HO53130   5.614   6.426   3.975 -0.2569  0.4255 -0.1081
18507THY    CA153131   5.621   6.474   4.159  0.1395  0.1569 -0.6049
18507THY    CA253132   5.697   6.543   4.258  0.9478  0.2593  0.1803
18507THY    CP153133   5.849   6.541   4.246 -0.1007 -0.0691 -0.2101
18507THY    HP153134   5.882   6.473   4.167 -0.2879 -2.4263  2.2719
18507THY    CP253135   5.906   6.488   4.373 -0.9797  0.5430 -0.9860
18507THY    HP253136   5.925   6.574   4.439  0.6865 -0.5395 -0.4772
18507THY    HP353137   6.000   6.435   4.359  0.5016  0.6296  1.4467
18507THY    HP453138   5.838   6.412   4.413 -0.8814 -3.5487 -3.5351
18507THY    CP353139   5.920   6.674   4.200  0.3052 -0.0667  0.1492
18507THY    HP553140   5.903   6.759   4.268  0.3774  0.8520 -0.5528
18507THY    HP653141   5.893   6.697   4.096 -0.3786  0.5044  2.1529
18507THY    HP753142   6.029   6.665   4.205  0.1951  1.6214 -0.6056
18507THY    CA353143   5.627   6.596   4.369  0.2989  0.0929 -1.0234
18507THY    HA353144   5.673   6.637   4.458 -0.4543  1.2070 -2.5163
18507THY    CA453145   5.489   6.595   4.371  1.5002  0.4571 -0.5102
18507THY    HA453146   5.434   6.630   4.458 -1.3618 -1.7138  0.8097
18507THY    CA553147   5.414   6.533   4.268  0.1483 -0.3453 -0.2470
18507THY    CM153148   5.263   6.522   4.293 -0.6777 -0.3820  0.5205
18507THY    HM153149   5.206   6.490   4.205 -0.0716  0.2688 -2.6057
18507THY    HM253150   5.226   6.617   4.334  1.1381 -0.4173  1.2786
18507THY    HM353151   5.254   6.455   4.379 -0.6425 -0.2340  0.7055
18507THY    CA653152   5.478   6.473   4.162  0.1911 -0.2272 -0.4063
18507THY    HA653153   5.425   6.419   4.084  1.5921 -1.0043 -0.7149
18508THY      O53154   0.426   7.408   2.909 -0.2822  0.9699 -0.2306
18508THY     HO53155   0.443   7.504   2.911 -1.1150 -3.0901  0.1951
18508THY    CA153156   0.351   7.397   2.796 -0.2046  0.0545  0.1611
18508THY    CA253157   0.284   7.277   2.771 -0.1125  0.0965 -0.5046
18508THY    CP153158   0.306   7.158   2.866  0.2058  0.0340 -0.0651
18508THY    HP153159   0.386   7.180   2.938 -0.9845  1.0418  1.1316
18508THY    CP253160   0.339   7.022   2.795 -0.2172  0.9621  0.2728
18508THY    HP253161   0.370   6.954   2.875 -1.0564  1.9785  1.0634
18508THY    HP353162   0.422   7.035   2.723 -0.5429  0.6028  0.3776
18508THY    HP453163   0.262   6.975   2.733  2.3833 -3.5126  1.2272
18508THY    CP353164   0.176   7.129   2.960 -0.8984  0.0637 -0.3099
18508THY    HP553165   0.087   7.098   2.904 -0.6643 -2.0917  2.5385
18508THY    HP653166   0.146   7.220   3.015 -0.4383 -0.9224  0.4548
18508THY    HP753167   0.200   7.055   3.037  1.8602 -1.8449 -1.5517
18508THY    CA353168   0.210   7.266   2.651 -1.1278 -0.1246 -0.3685
18508THY    HA353169   0.163   7.170   2.629  1.6365 -1.2698 -1.5813
18508THY    CA453170   0.194   7.378   2.570 -0.3145 -0.2796  0.1500
18508THY    HA453171   0.143   7.368   2.474  1.7835 -1.2975 -2.0691
18508THY    CA553172   0.257   7.498   2.603  0.1818 -0.1056  0.1220
18508THY    CM153173   0.251   7.612   2.507  0.3889  0.1823 -0.5735
18508THY    HM153174   0.269   7.707   2.558  0.0413 -0.4266 -0.1758
18508THY    HM253175   0.156   7.622   2.454  0.0114  0.9224 -0.2316
18508THY    HM353176   0.333   7.592   2.436 -0.5390 -1.7949  2.1104
18508THY    CA653177   0.343   7.502   2.708 -0.1202 -0.5619 -0.3888
18508THY    HA653178   0.397   7.593   2.732  0.5840 -2.0222 -0.4047
18509THY      O53179   8.419   6.067   3.263  0.4685  0.2807 -0.1655
18509THY     HO53180   8.494   6.006   3.263  0.6520  0.5006  0.0558
18509THY    CA153181   8.437   6.152   3.160 -0.0744 -0.2070 -0.2605
18509THY    CA253182   8.328   6.221   3.110 -0.3318  0.8692 -0.4412
18509THY    CP153183   8.188   6.210   3.178  0.5942 -0.4234  0.0214
18509THY    HP153184   8.175   6.119   3.238 -1.9556  0.6785  1.0185
18509THY    CP253185   8.065   6.228   3.089 -0.1908 -0.3617  0.3763
18509THY    HP253186   7.984   6.194   3.155  0.6783  0.7312  0.3616
18509THY    HP353187   8.067   6.164   3.000 -0.9942  1.0468 -1.7262
18509THY    HP453188   8.045   6.336   3.082  3.7885  1.4336  1.4443
18509THY    CP353189   8.191   6.317   3.290  0.1580 -0.2440  0.2574
18509THY    HP553190   8.270   6.298   3.363  0.3419 -0.3103  0.7633
18509THY    HP653191   8.100   6.309   3.352 -0.0944 -0.6949 -0.4527
18509THY    HP753192   8.198   6.417   3.247  2.2132 -2.2686 -0.6811
18509THY    CA353193   8.347   6.311   2.994 -0.7353 -0.5204 -0.4423
18509THY    HA353194   8.267   6.366   2.945 -0.4114 -0.5702 -0.0121
18509THY    CA453195   8.481   6.315   2.940  0.1867 -0.0814 -0.3094
18509THY    HA453196   8.490   6.387   2.859 -0.8086 -0.6275 -0.7755
18509THY    CA553197   8.580   6.229   2.982  1.0041 -0.3920 -0.0362
18509THY    CM153198   8.713   6.250   2.913  0.9266 -0.5079  0.6028
18509THY    HM153199   8.792   6.186   2.954  0.8191  1.6621  1.7568
18509THY    HM253200   8.746   6.352   2.940 -1.8229  0.3937  1.3456
18509THY    HM353201   8.702   6.232   2.806  2.2778 -0.1630 -2.9524
18509THY    CA653202   8.558   6.147   3.097 -0.8976  0.0025 -0.3084
18509THY    HA653203   8.640   6.086   3.133  0.6989  0.5783  2.0377
18510THY      O53204   4.093   3.989   5.044  0.0583 -0.6224 -0.2130
18510THY     HO53205   4.088   3.961   5.137  0.0044 -0.6714 -0.3622
18510THY    CA153206   4.079   3.879   4.968 -0.0710  0.2507  0.2426
18510THY    CA253207   4.084   3.871   4.829  0.6697  0.0312 -0.2792
18510THY    CP153208   4.101   3.992   4.748  0.1453 -0.1757 -0.0064
18510THY    HP153209   4.105   4.077   4.818 -1.0677 -1.7769  1.4239
18510THY    CP253210   3.978   4.027   4.664 -0.5018  0.3603 -0.4478
18510THY    HP253211   4.009   4.110   4.600  0.5851  1.2383 -0.1495
18510THY    HP353212   3.896   4.062   4.727 -0.7942 -0.5076  0.4791
18510THY    HP453213   3.945   3.936   4.612 -0.2947  0.3246 -0.5036
18510THY    CP353214   4.220   3.973   4.662  0.3107  0.1691  0.3467
18510THY    HP553215   4.268   4.058   4.614  0.2852  0.2873  0.4282
18510THY    HP653216   4.195   3.900   4.584  0.2849  1.3040 -0.8912
18510THY    HP753217   4.302   3.925   4.717  1.0858 -1.3038 -0.0892
18510THY    CA353218   4.075   3.737   4.772 -0.2468  0.3252  0.4211
18510THY    HA353219   4.087   3.725   4.665  1.5982  0.1380  2.9569
18510THY    CA453220   4.075   3.619   4.849 -0.0827  0.7521  0.4465
18510THY    HA453221   4.074   3.523   4.799 -1.4598  0.0503  0.7930
18510THY    CA553222   4.070   3.630   4.982 -0.0670  0.1034  1.2978
18510THY    CM153223   4.079   3.499   5.066 -0.0283  0.4544 -0.2310
18510THY    HM153224   4.175   3.504   5.118  0.0559  0.3600 -0.8229
18510THY    HM253225   4.086   3.405   5.011  3.2924  0.2227  0.0311
18510THY    HM353226   3.995   3.481   5.133 -0.2755  0.5144  1.0455
18510THY    CA653227   4.072   3.760   5.040  0.0175 -0.0500  0.5333
18510THY    HA653228   4.087   3.754   5.147 -0.1774 -0.0943 -1.2021
18511THY      O53229   8.213   3.131   5.022  0.3605 -1.0311  1.0302
18511THY     HO53230   8.240   3.080   4.943  2.0859  1.2697 -1.9069
18511THY    CA153231   8.107   3.210   4.996 -0.3365  0.3921 -0.2210
18511THY    CA253232   8.045   3.285   5.098 -0.3430  0.0867 -0.0366
18511THY    CP153233   8.086   3.254   5.245  0.0850  0.3123 -0.2316
18511THY    HP153234   8.193   3.236   5.255  0.4583 -1.2127  0.9309
18511THY    CP253235   8.008   3.131   5.301 -0.3665  0.3392 -0.7116
18511THY    HP253236   7.900   3.149   5.295 -0.6518 -1.2907 -2.6209
18511THY    HP353237   8.020   3.107   5.407 -1.9209  0.6558 -0.1709
18511THY    HP453238   8.040   3.042   5.245  2.8397 -1.4641  1.3894
18511THY    CP353239   8.051   3.376   5.337 -0.7426 -0.6683 -0.1120
18511THY    HP553240   8.121   3.371   5.422 -1.4986 -0.0771 -1.1876
18511THY    HP653241   7.952   3.374   5.383 -0.6195 -0.4249 -1.6597
18511THY    HP753242   8.066   3.474   5.291 -0.0566  2.5281  1.4090
18511THY    CA353243   7.949   3.383   5.064 -0.4922 -0.1511 -0.0054
18511THY    HA353244   7.897   3.436   5.143  0.5301  1.0573 -0.7474
18511THY    CA453245   7.918   3.407   4.929 -0.3662  0.0630 -1.1122
18511THY    HA453246   7.848   3.488   4.912 -0.5183  1.0742 -1.0189
18511THY    CA553247   7.971   3.329   4.826  0.1473 -0.2292 -0.3761
18511THY    CM153248   7.936   3.336   4.672  0.4793 -0.2706  0.5014
18511THY    HM153249   7.837   3.375   4.648  0.7528  0.5827  1.8125
18511THY    HM253250   7.951   3.244   4.616  0.8013  0.4809  0.0836
18511THY    HM353251   8.006   3.402   4.619  0.7043 -0.9268 -0.2420
18511THY    CA653252   8.065   3.222   4.862 -0.5976  0.7673  0.4527
18511THY    HA653253   8.118   3.166   4.786  0.0018 -0.6655  2.8111
18512THY      O53254   8.371   8.694   4.518  0.1636 -0.0257 -1.0601
18512THY     HO53255   8.363   8.635   4.595  0.1928  0.0726 -0.9375
18512THY    CA153256   8.502   8.733   4.506 -0.0335 -0.1036 -0.1693
18512THY    CA253257   8.555   8.784   4.390 -0.6575 -0.0804 -0.5585
18512THY    CP153258   8.479   8.792   4.263  0.1895  0.3914  0.0647
18512THY    HP153259   8.385   8.737   4.279  1.0786  0.9047 -1.3622
18512THY    CP253260   8.553   8.724   4.152 -0.7383  0.2432 -0.1677
18512THY    HP253261   8.483   8.709   4.070  1.2449 -0.9474 -4.6444
18512THY    HP353262   8.582   8.621   4.177  2.3419 -0.5976  0.3960
18512THY    HP453263   8.645   8.777   4.124  0.4535  1.2163 -1.5958
18512THY    CP353264   8.456   8.938   4.226 -0.1540 -0.4990  0.0729
18512THY    HP553265   8.540   8.988   4.177  1.5602 -1.6472 -3.6316
18512THY    HP653266   8.435   8.994   4.318 -0.8266 -0.9775  0.6340
18512THY    HP753267   8.374   8.946   4.153 -0.5868  0.0604  0.8390
18512THY    CA353268   8.696   8.823   4.397 -0.1448  0.4844  0.7951
18512THY    HA353269   8.737   8.883   4.316 -0.0767  0.5029  0.7720
18512THY    CA453270   8.772   8.811   4.509 -0.0672 -0.3149 -0.5502
18512THY    HA453271   8.877   8.838   4.503 -0.3161 -1.0186  0.2789
18512THY    CA553272   8.716   8.747   4.621  0.1538  0.4768  0.2144
18512THY    CM153273   8.813   8.720   4.736 -0.3594 -0.1936 -0.2988
18512THY    HM153274   8.822   8.803   4.807  0.4985  0.2928 -0.7900
18512THY    HM253275   8.916   8.714   4.699 -0.6118 -1.0592  0.5451
18512THY    HM353276   8.783   8.629   4.790  1.4992  4.7057  1.6217
18512THY    CA653277   8.584   8.703   4.616 -0.5389  0.8812 -0.9086
18512THY    HA653278   8.543   8.656   4.705 -2.6754 -1.5225 -4.0443
18513THY      O53279   0.585   8.223   5.621 -0.2081 -0.4479 -0.3608
18513THY     HO53280   0.677   8.245   5.600 -0.4725 -0.3476  0.8793
18513THY    CA153281   0.515   8.316   5.546  0.4545 -0.2678 -0.3407
18513THY    CA253282   0.401   8.376   5.596  1.1019 -0.0253 -0.3644
18513THY    CP153283   0.348   8.341   5.733  0.1464  0.1458  0.2472
18513THY    HP153284   0.390   8.245   5.764 -2.4411 -1.0400 -1.3842
18513THY    CP253285   0.199   8.310   5.726  0.3441 -0.6405 -0.1356
18513THY    HP253286   0.179   8.222   5.663 -4.3669  0.8655 -0.4051
18513THY    HP353287   0.140   8.396   5.693  0.6223  1.2840  0.8505
18513THY    HP453288   0.168   8.300   5.831  1.9502 -0.1394 -0.0942
18513THY    CP353289   0.386   8.443   5.839 -0.6849 -0.4483 -0.4721
18513THY    HP553290   0.335   8.539   5.824  1.2395  0.1713  0.6879
18513THY    HP653291   0.492   8.468   5.840 -0.7270  0.7526 -0.2460
18513THY    HP753292   0.350   8.407   5.936 -0.8249  0.0598  0.9797
18513THY    CA353293   0.348   8.480   5.513 -0.2228  0.2352  0.4110
18513THY    HA353294   0.261   8.541   5.537 -1.1119  0.6329 -0.9662
18513THY    CA453295   0.387   8.496   5.384 -0.7483  0.0526  0.1821
18513THY    HA453296   0.333   8.565   5.320  2.8662 -3.7993 -0.1729
18513THY    CA553297   0.505   8.429   5.331  0.8886  0.3401  1.0023
18513THY    CM153298   0.557   8.450   5.195  0.6125  0.0510  0.8725
18513THY    HM153299   0.526   8.378   5.119  0.6310  0.2392  0.6641
18513THY    HM253300   0.667   8.454   5.200  0.7748  1.4383 -2.1686
18513THY    HM353301   0.525   8.550   5.167  0.1448  2.0536  1.3173
18513THY    CA653302   0.572   8.347   5.422 -0.3688  0.1384 -0.2900
18513THY    HA653303   0.669   8.305   5.398 -0.5517  0.2270 -0.7647
18514THY      O53304   6.430   2.947   5.756 -0.7303 -0.1047  0.1120
18514THY     HO53305   6.415   2.939   5.661 -2.0071 -0.2548  2.8912
18514THY    CA153306   6.534   2.863   5.798 -0.0036  0.7406 -0.1539
18514THY    CA253307   6.595   2.882   5.923  0.2180  0.1948  0.0324
18514THY    CP153308   6.552   2.989   6.014 -0.7594  0.5275  0.1412
18514THY    HP153309   6.513   3.073   5.955  3.9499 -1.9298  0.9375
18514THY    CP253310   6.666   3.058   6.093 -0.2052 -0.7156  0.0833
18514THY    HP253311   6.657   3.166   6.110 -0.9890 -1.1786  0.0992
18514THY    HP353312   6.762   3.048   6.040  0.1057  0.1606 -2.0618
18514THY    HP453313   6.693   2.995   6.178  2.6367 -0.9092  0.8693
18514THY    CP353314   6.436   2.955   6.104 -0.2996 -0.4411  0.2305
18514THY    HP553315   6.470   2.867   6.160  0.5191 -0.5088  0.5012
18514THY    HP653316   6.359   2.926   6.032  0.1912 -0.8268 -0.1309
18514THY    HP753317   6.408   3.037   6.172 -0.1729 -0.5351  0.3508
18514THY    CA353318   6.683   2.784   5.967  0.1886 -0.5988 -0.3249
18514THY    HA353319   6.732   2.784   6.064  0.7357 -0.7996 -2.8125
18514THY    CA453320   6.722   2.685   5.873  0.0875 -0.2284  0.2120
18514THY    HA453321   6.793   2.611   5.906  0.1208 -1.3379 -0.2684
18514THY    CA553322   6.668   2.684   5.738  0.6038  0.7003 -0.2221
18514THY    CM153323   6.702   2.577   5.643 -0.4110  0.5020  0.2037
18514THY    HM153324   6.624   2.501   5.637  0.7599  1.4805 -1.1264
18514THY    HM253325   6.785   2.507   5.663 -2.2063  0.7234 -1.9876
18514THY    HM353326   6.719   2.635   5.552  2.3997 -0.3388 -1.7210
18514THY    CA653327   6.573   2.772   5.704  0.5578  0.1354 -0.4830
18514THY    HA653328   6.531   2.781   5.604 -0.0758  0.3984 -0.4864
18515THY      O53329   7.257   8.243   5.022  0.1493 -0.2063  0.0048
18515THY     HO53330   7.244   8.178   5.093 -2.8470 -0.1746  0.5153
18515THY    CA153331   7.175   8.351   5.061  0.0076 -0.2558  0.1219
18515THY    CA253332   7.186   8.477   5.003  0.6535  0.0430  0.7932
18515THY    CP153333   7.279   8.503   4.880 -0.0288  0.4600  0.1015
18515THY    HP153334   7.293   8.416   4.814  2.7433 -2.2325  2.3901
18515THY    CP253335   7.419   8.555   4.930 -0.0520 -0.5216 -0.6629
18515THY    HP253336   7.452   8.485   5.007  1.9581 -0.7488 -0.0324
18515THY    HP353337   7.412   8.653   4.979  7.5321  1.7834 -0.6214
18515THY    HP453338   7.497   8.562   4.852 -1.7389 -2.3682 -1.3726
18515THY    CP353339   7.217   8.606   4.784  0.7478 -0.3681 -0.8905
18515THY    HP553340   7.225   8.710   4.818 -0.7662  0.4458 -1.0113
18515THY    HP653341   7.112   8.581   4.762  0.7652 -0.3886 -0.9428
18515THY    HP753342   7.272   8.605   4.689  1.2844 -0.0816  0.1278
18515THY    CA353343   7.118   8.584   5.065 -0.4846  0.0853 -0.5483
18515THY    HA353344   7.117   8.683   5.019 -0.9330  1.2496  0.0026
18515THY    CA453345   7.048   8.561   5.187  0.1192  0.2306 -0.0368
18515THY    HA453346   6.990   8.644   5.227  0.5043 -0.0454  0.3641
18515THY    CA553347   7.039   8.430   5.234 -0.0085 -0.4300  0.4584
18515THY    CM153348   6.964   8.394   5.356 -0.2746  0.4807  0.3341
18515THY    HM153349   6.906   8.301   5.346  0.0410 -0.3916  0.2152
18515THY    HM253350   6.893   8.475   5.376  0.3994 -1.5556  1.5031
18515THY    HM353351   7.021   8.382   5.448  0.0592  0.3025  0.5303
18515THY    CA653352   7.109   8.324   5.177 -0.6399  0.2961  0.1385
18515THY    HA653353   7.103   8.228   5.226  0.6889 -2.5272 -1.5106
18516THY      O53354   3.609   0.690   3.263  0.7682  0.0709 -0.5852
18516THY     HO53355   3.547   0.746   3.313  1.2056  0.1069 -0.1309
18516THY    CA153356   3.686   0.628   3.350  0.0939  0.2616  0.2195
18516THY    CA253357   3.792   0.545   3.307 -0.4634 -0.5455 -0.4011
18516THY    CP153358   3.830   0.534   3.160 -0.1709  0.1221  0.0217
18516THY    HP153359   3.785   0.615   3.102 -0.8646 -0.2352 -0.6030
18516THY    CP253360   3.777   0.413   3.096  0.6191  0.5582 -0.0256
18516THY    HP253361   3.668   0.411   3.103  0.6519  1.8664  1.2373
18516THY    HP353362   3.804   0.315   3.136 -1.1096  4.9857  1.0717
18516THY    HP453363   3.807   0.412   2.990 -1.2146  0.0096  0.0052
18516THY    CP353364   3.980   0.553   3.146 -0.2689 -0.0793  0.3213
18516THY    HP553365   4.025   0.459   3.180 -1.9773  1.5586  0.0483
18516THY    HP653366   4.017   0.643   3.195  0.0854 -1.7521  1.1348
18516THY    HP753367   4.006   0.571   3.040 -2.7087 -1.1412 -1.8467
18516THY    CA353368   3.856   0.460   3.407 -0.0339 -0.0094  0.4312
18516THY    HA353369   3.937   0.393   3.379  1.3210 -1.0597  2.4212
18516THY    CA453370   3.814   0.472   3.541 -0.3626  0.0522 -0.2114
18516THY    HA453371   3.863   0.409   3.615 -0.2681  1.4332  1.4267
18516THY    CA553372   3.720   0.567   3.584 -0.6107  0.0775  0.1612
18516THY    CM153373   3.677   0.570   3.724  0.3900  1.1181  0.1529
18516THY    HM153374   3.646   0.672   3.748  0.1762  2.5382 -0.2222
18516THY    HM253375   3.757   0.549   3.796  0.1544  1.4496  0.3882
18516THY    HM353376   3.589   0.507   3.741 -0.7932 -0.7333  1.2288
18516THY    CA653377   3.651   0.638   3.483  0.2256 -0.2819  0.5346
18516THY    HA653378   3.580   0.714   3.515  0.2043 -0.1281  0.4493
18517THY      O53379   5.419   4.178   6.339  0.4442 -0.5700 -0.2291
18517THY     HO53380   5.345   4.130   6.299  1.1898 -1.9471 -0.2948
18517THY    CA153381   5.500   4.074   6.377 -0.1018 -0.3044 -0.0767
18517THY    CA253382   5.635   4.111   6.404  0.2667  0.6235 -0.0953
18517THY    CP153383   5.677   4.256   6.413 -0.0146 -0.1901  0.3141
18517THY    HP153384   5.615   4.325   6.355  1.1307  0.8436  2.3149
18517THY    CP253385   5.822   4.275   6.367  0.0737  0.0133  0.6972
18517THY    HP253386   5.839   4.382   6.349  0.5961  0.6045  0.7169
18517THY    HP353387   5.841   4.230   6.268 -0.4800 -0.1391  0.7984
18517THY    HP453388   5.898   4.251   6.442  0.5253  0.0237  2.0908
18517THY    CP353389   5.673   4.301   6.560  0.0706  0.5373  0.4044
18517THY    HP553390   5.707   4.406   6.568  1.2545 -0.7207  0.1412
18517THY    HP653391   5.742   4.242   6.622 -1.0481 -0.7739 -2.4445
18517THY    HP753392   5.575   4.298   6.608 -0.3738 -0.2572  1.5401
18517THY    CA353393   5.723   4.005   6.453  0.3161 -0.0947 -0.2104
18517THY    HA353394   5.822   4.023   6.493  0.9354 -2.2572  1.5630
18517THY    CA453395   5.677   3.873   6.437  0.2774  0.9268  1.1495
18517THY    HA453396   5.738   3.788   6.465 -2.4658 -1.3716 -1.8136
18517THY    CA553397   5.548   3.845   6.389 -0.4388  0.3922 -0.5038
18517THY    CM153398   5.506   3.701   6.372 -0.0262  0.5251  0.3803
18517THY    HM153399   5.420   3.677   6.436  0.8990  1.9417  0.7056
18517THY    HM253400   5.589   3.637   6.405  0.5965  1.3936  1.5832
18517THY    HM353401   5.477   3.685   6.268  0.3510  0.2128  1.5892
18517THY    CA653402   5.458   3.942   6.364  0.6420  0.6980 -0.4778
18517THY    HA653403   5.356   3.923   6.330  0.0918  0.6911  2.1903
18518THY      O53404   3.561   8.103   2.633 -0.7154 -0.2705 -0.7021
18518THY     HO53405   3.562   8.197   2.658 -1.7630 -2.3351 -0.0832
18518THY    CA153406   3.645   8.040   2.720 -0.1155  0.1022  0.6908
18518THY    CA253407   3.658   7.898   2.724  0.1328  0.1771  0.5329
18518THY    CP153408   3.573   7.813   2.623  0.0358  0.0294  0.0749
18518THY    HP153409   3.497   7.881   2.585  0.6307 -2.1405 -0.4025
18518THY    CP253410   3.506   7.691   2.687 -0.0774  0.2728 -0.4610
18518THY    HP253411   3.425   7.728   2.751  1.3858  1.9733 -0.1090
18518THY    HP353412   3.585   7.631   2.733  1.7248  1.1751  2.3912
18518THY    HP453413   3.467   7.636   2.600  0.1462  0.9824 -1.7753
18518THY    CP353414   3.657   7.773   2.512  0.2516  0.4739  0.2802
18518THY    HP553415   3.725   7.697   2.553  3.1061 -0.7054  2.0694
18518THY    HP653416   3.716   7.852   2.464  0.2374 -0.7645 -0.4332
18518THY    HP753417   3.605   7.726   2.427 -2.7882  0.4524  3.2636
18518THY    CA353418   3.750   7.842   2.812  0.4933  0.2545  0.5235
18518THY    HA353419   3.770   7.735   2.821 -1.3555  0.9512  0.2057
18518THY    CA453420   3.835   7.929   2.884 -0.5764 -0.2843  0.4440
18518THY    HA453421   3.924   7.890   2.933 -0.4359  0.7756  2.0162
18518THY    CA553422   3.832   8.065   2.861  0.1415  0.5832 -0.1313
18518THY    CM153423   3.936   8.149   2.933  0.1872  0.4024 -0.1096
18518THY    HM153424   3.910   8.255   2.934  1.1735 -1.5696  0.1812
18518THY    HM253425   4.038   8.149   2.895 -0.2466 -0.7984  0.7556
18518THY    HM353426   3.940   8.119   3.039  3.2141  1.1300  2.3775
18518THY    CA653427   3.738   8.122   2.777  0.5906  0.7487  0.2503
18518THY    HA653428   3.739   8.228   2.755  0.0724 -0.8579 -0.0418
18519THY      O53429   6.151   8.822   7.737 -0.2638  0.0057  0.0544
18519THY     HO53430   6.117   8.733   7.753 -1.1065 -2.5098 -0.1642
18519THY    CA153431   6.052   8.891   7.672 -0.1039 -0.1332 -0.4038
18519THY    CA253432   6.079   8.999   7.583  0.6877  0.2654  0.1642
18519THY    CP153433   6.225   9.044   7.559  0.1546  0.2288  0.1139
18519THY    HP153434   6.285   9.028   7.650 -1.4420  1.5387  1.2891
18519THY    CP253435   6.249   9.189   7.511 -0.3538 -0.5569  0.1473
18519THY    HP253436   6.354   9.216   7.522 -0.1121 -1.2880 -0.4660
18519THY    HP353437   6.195   9.258   7.576 -0.3981 -0.9044  0.4453
18519THY    HP453438   6.221   9.217   7.409  0.4167 -0.4705  1.3062
18519THY    CP353439   6.281   8.938   7.460 -0.4018 -0.7533  0.3746
18519THY    HP553440   6.242   8.836   7.466 -1.6074 -1.1457  0.8019
18519THY    HP653441   6.391   8.943   7.467 -0.3726 -1.5611  1.3020
18519THY    HP753442   6.252   8.971   7.359 -1.8272 -0.1969  0.8948
18519THY    CA353443   5.976   9.052   7.505  0.5069  0.1293  0.0679
18519THY    HA353444   5.984   9.130   7.431  0.2276 -0.0553 -0.0782
18519THY    CA453445   5.850   9.008   7.530 -0.3639 -0.2696 -0.1930
18519THY    HA453446   5.779   9.065   7.471 -0.1335 -0.8447 -0.4956
18519THY    CA553447   5.815   8.904   7.625  0.1594 -1.0292  0.4390
18519THY    CM153448   5.673   8.869   7.656  0.1850 -0.4886 -0.5072
18519THY    HM153449   5.603   8.919   7.588  0.2406 -2.7702 -3.2692
18519THY    HM253450   5.649   8.895   7.760 -1.9440 -1.6013  2.6805
18519THY    HM353451   5.664   8.760   7.657  0.7069 -0.6900 -0.5538
18519THY    CA653452   5.918   8.846   7.692 -0.6069 -0.6075  0.3122
18519THY    HA653453   5.901   8.768   7.766  0.6860 -1.8491 -1.2158
18520THY      O53454   0.601   2.505   4.122  0.0193  0.2477 -0.5006
18520THY     HO53455   0.540   2.479   4.052  0.3112 -1.4073  2.7798
18520THY    CA153456   0.569   2.433   4.241  0.5001  0.5013 -0.0147
18520THY    CA253457   0.617   2.465   4.368  0.2132 -0.5882 -0.1960
18520THY    CP153458   0.721   2.579   4.380  0.4827  0.7320 -0.7029
18520THY    HP153459   0.705   2.641   4.291  1.3879  0.6235 -0.5983
18520THY    CP253460   0.865   2.524   4.380 -0.0388  0.8644 -0.3004
18520THY    HP253461   0.867   2.471   4.475 -3.6379  0.0739 -2.2380
18520THY    HP353462   0.944   2.598   4.388 -2.0868 -0.0768  2.1374
18520THY    HP453463   0.894   2.458   4.297 -0.0094  2.1456 -1.9524
18520THY    CP353464   0.709   2.664   4.507  0.3745  0.3681 -0.3815
18520THY    HP553465   0.608   2.706   4.512  1.1278 -0.4142  1.6611
18520THY    HP653466   0.781   2.746   4.503 -1.3511  1.2641  1.2665
18520THY    HP753467   0.727   2.605   4.598  1.8429 -0.8102 -1.8443
18520THY    CA353468   0.578   2.387   4.477 -1.1591 -0.1885  0.2151
18520THY    HA353469   0.613   2.410   4.578  0.0667 -0.4418 -0.4340
18520THY    CA453470   0.497   2.279   4.454  0.2349 -0.9163 -0.1627
18520THY    HA453471   0.458   2.223   4.538  0.1652  0.8826  2.3997
18520THY    CA553472   0.447   2.254   4.329  0.1337 -0.1079  0.0762
18520THY    CM153473   0.341   2.143   4.307  0.3423 -0.4194  0.0960
18520THY    HM153474   0.392   2.054   4.267 -1.5255 -1.3572 -0.6127
18520THY    HM253475   0.271   2.192   4.239  1.6192 -0.3379  2.1643
18520THY    HM353476   0.276   2.124   4.393 -0.9656 -1.7145 -1.5764
18520THY    CA653477   0.492   2.321   4.219  0.3665 -0.1373 -0.5058
18520THY    HA653478   0.457   2.289   4.121 -0.7073 -0.0188  0.2378
18521THY      O53479   3.995   6.748   3.117  0.6732 -0.1104 -0.8184
18521THY     HO53480   3.961   6.673   3.170 -2.5284 -1.0292 -0.1701
18521THY    CA153481   4.131   6.749   3.124  0.9656 -0.6096  0.0594
18521THY    CA253482   4.193   6.857   3.179  0.1903 -0.2527  0.0585
18521THY    CP153483   4.106   6.962   3.248  0.2782  0.3246  0.0170
18521THY    HP153484   4.004   6.963   3.208 -0.6729  2.3613 -2.8285
18521THY    CP253485   4.150   7.100   3.198  0.1558  0.4046 -1.1052
18521THY    HP253486   4.162   7.106   3.089  0.2737  0.4455 -0.5280
18521THY    HP353487   4.243   7.137   3.243 -0.3947  0.3511  0.3995
18521THY    HP453488   4.080   7.178   3.229  0.7204 -1.6333  0.2785
18521THY    CP353489   4.102   6.939   3.397 -0.1073  0.1782  0.0785
18521THY    HP553490   4.038   7.017   3.441  0.5218  0.5003  0.4210
18521THY    HP653491   4.196   6.956   3.451 -2.1444  3.8231  0.8726
18521THY    HP753492   4.060   6.838   3.408  1.7158  1.3155 -0.6052
18521THY    CA353493   4.326   6.849   3.206 -0.1354  0.4393 -0.1134
18521THY    HA353494   4.382   6.921   3.265 -0.5324  1.1732 -0.3962
18521THY    CA453495   4.405   6.744   3.157 -0.5280 -0.4985  0.9688
18521THY    HA453496   4.510   6.735   3.183 -0.4001 -0.1200  3.0995
18521THY    CA553497   4.339   6.630   3.109  0.0202  0.3405 -0.5788
18521THY    CM153498   4.424   6.512   3.075  0.3891  0.1219  0.4368
18521THY    HM153499   4.376   6.422   3.034  0.6778  1.9553 -0.6110
18521THY    HM253500   4.463   6.462   3.165 -1.1973  0.3603 -0.4435
18521THY    HM353501   4.493   6.544   2.996 -1.5592 -1.5686  0.6942
18521THY    CA653502   4.201   6.638   3.089  0.2289 -0.1781  0.9488
18521THY    HA653503   4.142   6.553   3.057  0.6060 -0.0820  0.6433
18522THY      O53504   3.401   3.692   5.744  0.3442  0.4274 -0.4106
18522THY     HO53505   3.345   3.639   5.685  1.3674  0.3654 -1.4402
18522THY    CA153506   3.505   3.617   5.776 -0.2934 -0.1017  0.4803
18522THY    CA253507   3.618   3.676   5.822 -0.4680  0.1977  0.7649
18522THY    CP153508   3.625   3.826   5.826  0.2224  0.3144 -0.3138
18522THY    HP153509   3.577   3.862   5.735  0.2306  0.2161 -0.5485
18522THY    CP253510   3.766   3.887   5.836  0.0520  0.2411  0.1475
18522THY    HP253511   3.821   3.852   5.924  1.9767 -0.9453  0.0152
18522THY    HP353512   3.753   3.996   5.830 -1.3561 -0.2165 -0.0232
18522THY    HP453513   3.818   3.849   5.747  0.4357  0.4172  0.2587
18522THY    CP353514   3.536   3.887   5.934 -0.5209 -0.5355  0.0199
18522THY    HP553515   3.596   3.907   6.024 -1.3615 -0.1712  1.0174
18522THY    HP653516   3.463   3.814   5.971 -0.5576 -0.5628  0.0429
18522THY    HP753517   3.475   3.975   5.910 -3.0547 -0.1571 -1.5276
18522THY    CA353518   3.730   3.585   5.848  0.2137  0.0087  0.2034
18522THY    HA353519   3.830   3.622   5.871  0.0921 -0.7399  1.0408
18522THY    CA453520   3.719   3.446   5.839 -0.0385 -0.7077  0.2299
18522THY    HA453521   3.806   3.385   5.858  0.3106  1.1632  1.2464
18522THY    CA553522   3.594   3.387   5.808 -0.4431  0.2759 -0.4341
18522THY    CM153523   3.575   3.243   5.808  0.4003 -0.7931  0.8235
18522THY    HM153524   3.547   3.202   5.906  0.7300 -0.4324  1.4395
18522THY    HM253525   3.668   3.188   5.787  1.3653  0.9709  1.6888
18522THY    HM353526   3.501   3.220   5.731  0.7862 -1.3834  1.4980
18522THY    CA653527   3.484   3.475   5.779 -0.8057 -0.2444  0.5965
18522THY    HA653528   3.384   3.440   5.756 -0.9784  0.3196  0.6961
18523THY      O53529   1.071   7.228   4.585  0.1483 -0.8938  0.1690
18523THY     HO53530   1.098   7.265   4.499  0.9615 -0.8005 -0.1902
18523THY    CA153531   1.089   7.324   4.683 -0.8675  0.1751 -0.9572
18523THY    CA253532   1.023   7.322   4.806 -0.2329 -0.5129 -0.1236
18523THY    CP153533   0.917   7.212   4.829 -0.2032  0.0267  0.0688
18523THY    HP153534   0.925   7.134   4.752 -1.5032  0.6105 -0.6736
18523THY    CP253535   0.770   7.262   4.839 -0.3417  0.0500 -0.0703
18523THY    HP253536   0.761   7.320   4.932  0.0313 -0.1787  0.3643
18523THY    HP353537   0.704   7.177   4.853 -0.8575 -1.1101  0.1232
18523THY    HP453538   0.744   7.300   4.740 -0.5877  0.5214  1.0411
18523THY    CP353539   0.952   7.129   4.962  0.2005  0.7772  0.1730
18523THY    HP553540   0.918   7.025   4.954  1.1160  0.6735 -0.1280
18523THY    HP653541   0.906   7.181   5.047  2.4436  1.1469  1.6913
18523THY    HP753542   1.060   7.134   4.978  0.5576 -1.3576  0.0393
18523THY    CA353543   1.066   7.407   4.912  0.6764  0.4603  0.7480
18523THY    HA353544   1.017   7.398   5.009 -0.4032 -0.2674 -2.9787
18523THY    CA453545   1.174   7.502   4.889 -0.3796  0.0402  0.0382
18523THY    HA453546   1.206   7.558   4.976 -0.4288  0.0961 -0.0203
18523THY    CA553547   1.222   7.516   4.755 -0.3798  0.2842 -0.5051
18523THY    CM153548   1.323   7.618   4.720  0.5815  0.4233 -0.4198
18523THY    HM153549   1.285   7.683   4.640 -0.3355  0.4951 -0.8591
18523THY    HM253550   1.417   7.581   4.677  0.8689 -0.1737  0.9151
18523THY    HM353551   1.345   7.683   4.805 -1.4978  0.3084  0.5092
18523THY    CA653552   1.187   7.422   4.653 -0.3616  0.1039  0.4129
18523THY    HA653553   1.233   7.421   4.555 -1.7448 -0.6091 -1.6050
18524THY      O53554   9.460   1.188   4.333 -0.2344  0.7412 -0.4082
18524THY     HO53555   9.539   1.143   4.299  0.6217 -0.7308  2.0034
18524THY    CA153556   9.358   1.135   4.264  0.3233  0.2506  0.2897
18524THY    CA253557   9.222   1.173   4.282 -0.0367  0.4664 -0.1180
18524THY    CP153558   9.178   1.305   4.356  0.0437 -0.2277  0.6469
18524THY    HP153559   9.076   1.316   4.319 -0.4708  0.4070 -1.4496
18524THY    CP253560   9.239   1.436   4.309 -0.0478  0.3212  0.5433
18524THY    HP253561   9.195   1.521   4.363  1.2955 -0.3728  1.7345
18524THY    HP353562   9.211   1.447   4.204 -0.8044  0.5861  1.2345
18524THY    HP453563   9.349   1.433   4.308 -0.0345 -1.2594  0.6753
18524THY    CP353564   9.171   1.293   4.511 -0.4207  0.8996  0.8223
18524THY    HP553565   9.262   1.237   4.534 -0.2032 -1.5162  0.0463
18524THY    HP653566   9.086   1.232   4.545 -0.4746 -0.8321 -0.1501
18524THY    HP753567   9.164   1.390   4.562  0.3076  0.0724  1.3223
18524THY    CA353568   9.116   1.104   4.209  0.1662  0.1576  0.1754
18524THY    HA353569   9.014   1.142   4.218 -0.4033  1.5148 -1.5141
18524THY    CA453570   9.150   0.999   4.126 -0.3699 -0.0674 -0.5333
18524THY    HA453571   9.081   0.956   4.053 -0.3874 -0.6637  0.4894
18524THY    CA553572   9.279   0.946   4.128 -0.2070  0.2447 -0.8095
18524THY    CM153573   9.309   0.825   4.043  0.1429  0.1037  0.0402
18524THY    HM153574   9.236   0.809   3.963  0.1440  0.0915  0.0962
18524THY    HM253575   9.305   0.725   4.090  1.1590 -0.2118 -0.1613
18524THY    HM353576   9.407   0.836   3.994  0.3054  0.1444 -1.0262
18524THY    CA653577   9.381   1.017   4.192  0.7707 -0.3674  0.0643
18524THY    HA653578   9.483   0.983   4.186  0.6061 -0.5428 -0.4092
18525THY      O53579   6.307   1.723   5.886  0.1410  0.1274 -0.1019
18525THY     HO53580   6.303   1.717   5.789 -2.4309  0.1308  0.5531
18525THY    CA153581   6.280   1.599   5.928  0.8992  0.2077 -0.4328
18525THY    CA253582   6.204   1.580   6.050 -0.5322 -0.0438  0.2336
18525THY    CP153583   6.145   1.701   6.133 -0.6698 -0.0709 -0.1670
18525THY    HP153584   6.201   1.795   6.129 -0.9561  2.1764  0.1422
18525THY    CP253585   6.135   1.674   6.273  0.5632  0.3646 -0.6709
18525THY    HP253586   6.068   1.594   6.305  0.1665 -1.4059 -1.0813
18525THY    HP353587   6.101   1.767   6.320 -0.4782 -1.0196 -0.3250
18525THY    HP453588   6.237   1.650   6.306  1.0371  0.0876  0.8325
18525THY    CP353589   6.011   1.739   6.071  0.2793 -0.4227  0.3840
18525THY    HP553590   5.930   1.684   6.121 -0.1744 -1.9662 -0.4205
18525THY    HP653591   5.999   1.721   5.963 -0.9418 -0.6028  2.0723
18525THY    HP753592   6.004   1.847   6.087  3.6249  1.9079  0.4209
18525THY    CA353593   6.195   1.443   6.100 -0.6779 -0.4180  0.3553
18525THY    HA353594   6.135   1.417   6.187  0.7260  0.0831 -1.4053
18525THY    CA453595   6.257   1.336   6.022 -0.4655 -0.0213 -0.0950
18525THY    HA453596   6.251   1.232   6.052  0.7808 -0.1648 -0.2294
18525THY    CA553597   6.338   1.364   5.915  0.2283 -0.4594 -0.2477
18525THY    CM153598   6.403   1.248   5.837 -0.2156  0.8058  0.3451
18525THY    HM153599   6.465   1.190   5.906 -1.8358  2.2348  0.2406
18525THY    HM253600   6.468   1.277   5.753 -2.5049 -0.5794  1.7970
18525THY    HM353601   6.326   1.174   5.815 -0.9109  0.7380  1.0708
18525THY    CA653602   6.336   1.493   5.856  0.1329 -0.5910  0.3380
18525THY    HA653603   6.377   1.515   5.759 -0.5763 -1.4606 -1.8794
18526THY      O53604   5.847   9.007   2.875 -0.5532  0.4675  0.5165
18526THY     HO53605   5.787   8.937   2.907  1.2502  0.4642 -1.1188
18526THY    CA153606   5.771   9.119   2.851 -0.0380  0.0333 -0.2003
18526THY    CA253607   5.821   9.245   2.811 -0.5871 -0.3670 -1.0348
18526THY    CP153608   5.968   9.244   2.778 -0.0538  0.0191 -0.4284
18526THY    HP153609   6.000   9.145   2.744 -0.9627  1.9651 -1.4369
18526THY    CP253610   6.048   9.298   2.894 -0.4984  0.0157 -0.2602
18526THY    HP253611   6.013   9.399   2.920 -0.8815  0.1636 -0.4302
18526THY    HP353612   6.154   9.306   2.869 -0.8881 -1.1223  2.2122
18526THY    HP453613   6.053   9.238   2.986  1.0701  0.2025  0.0994
18526THY    CP353614   5.998   9.342   2.658  0.1089  0.5656 -0.5330
18526THY    HP553615   6.104   9.340   2.631 -0.2122 -0.8168 -0.1243
18526THY    HP653616   5.972   9.447   2.675 -0.7639  0.4735 -0.7235
18526THY    HP753617   5.943   9.303   2.571 -1.1203  0.8714  0.4580
18526THY    CA353618   5.735   9.352   2.779  0.3967 -0.0472  0.5197
18526THY    HA353619   5.780   9.441   2.737  1.6692  0.0298 -0.0723
18526THY    CA453620   5.594   9.330   2.797 -0.1027  0.2718  0.4957
18526THY    HA453621   5.528   9.414   2.775 -0.1283  2.1946  1.0201
18526THY    CA553622   5.543   9.206   2.838 -0.2743  0.8222  0.0735
18526THY    CM153623   5.396   9.179   2.828 -0.9037 -0.1743 -0.0886
18526THY    HM153624   5.343   9.261   2.777  2.0484 -0.1104  2.0293
18526THY    HM253625   5.358   9.182   2.930 -1.5751 -0.4137 -0.2334
18526THY    HM353626   5.382   9.074   2.800  1.2137  1.2425 -0.7998
18526THY    CA653627   5.632   9.105   2.868 -0.2148  0.4619 -0.1326
18526THY    HA653628   5.591   9.008   2.897 -0.2718  0.6287 -0.0586
18527THY      O53629   6.450   1.973   4.672 -0.0226  0.2118 -0.6255
18527THY     HO53630   6.353   1.978   4.684  0.0277  0.2488  0.7506
18527THY    CA153631   6.468   2.042   4.554 -0.2330 -0.4025 -0.3842
18527THY    CA253632   6.590   2.032   4.477  0.2622  0.5372  0.2791
18527THY    CP153633   6.706   1.950   4.526 -0.0124  0.2233  0.7467
18527THY    HP153634   6.666   1.872   4.591  1.0787 -0.9692 -0.8625
18527THY    CP253635   6.822   2.019   4.605  0.7889 -0.7503 -0.1021
18527THY    HP253636   6.881   2.097   4.555  0.8826  1.9706  1.6867
18527THY    HP353637   6.895   1.942   4.635 -0.0048  0.4887 -0.3983
18527THY    HP453638   6.777   2.068   4.692  0.2307 -1.5370  0.7960
18527THY    CP353639   6.778   1.893   4.399  0.5737  0.6995 -0.1481
18527THY    HP553640   6.860   1.957   4.364 -1.4175  0.1719  2.2261
18527THY    HP653641   6.716   1.866   4.313  0.5938  0.5888  0.1556
18527THY    HP753642   6.830   1.800   4.428 -1.0469 -0.0043 -1.3128
18527THY    CA353643   6.604   2.119   4.365  0.4224 -0.0687  0.1122
18527THY    HA353644   6.687   2.115   4.295 -1.3751 -2.3528  0.5730
18527THY    CA453645   6.492   2.190   4.325 -0.3564 -0.1204 -0.1108
18527THY    HA453646   6.505   2.257   4.240  1.2603 -0.0412 -0.2765
18527THY    CA553647   6.375   2.200   4.409  0.5579  0.0299  0.0538
18527THY    CM153648   6.262   2.288   4.354 -0.1971 -0.0318  0.4963
18527THY    HM153649   6.188   2.295   4.435  0.3202  0.6952 -1.8472
18527THY    HM253650   6.208   2.241   4.270  0.9939 -0.8916  0.6202
18527THY    HM353651   6.308   2.380   4.315  1.2738 -0.4386 -0.3889
18527THY    CA653652   6.360   2.120   4.520 -0.6390  0.3546 -1.2356
18527THY    HA653653   6.275   2.138   4.585  0.5654  1.3374  1.3543
18528THY      O53654   7.493   5.284   3.528 -0.1487 -0.2415  0.3312
18528THY     HO53655   7.577   5.302   3.572 -0.6276  0.6024  0.5577
18528THY    CA153656   7.413   5.238   3.627  0.5784  0.0873  0.2767
18528THY    CA253657   7.303   5.155   3.594 -0.2313  0.6110 -0.3146
18528THY    CP153658   7.291   5.094   3.457  0.0106  0.5847  1.0220
18528THY    HP153659   7.333   5.149   3.372 -0.4406 -1.1757 -1.1841
18528THY    CP253660   7.145   5.082   3.417 -0.3749  0.0571  0.5546
18528THY    HP253661   7.104   4.989   3.458  2.8303  0.4974 -0.7906
18528THY    HP353662   7.152   5.081   3.308 -0.4738 -0.0437  3.0711
18528THY    HP453663   7.085   5.171   3.443 -2.8959 -3.1739  0.0315
18528THY    CP353664   7.353   4.956   3.450  0.2754 -0.8184  0.3072
18528THY    HP553665   7.330   4.893   3.537  1.9815  0.1227  0.9187
18528THY    HP653666   7.462   4.972   3.452  0.4804  1.8250 -0.8415
18528THY    HP753667   7.322   4.905   3.359 -0.6614 -0.7815  0.7966
18528THY    CA353668   7.218   5.123   3.696 -0.9805  0.3918 -0.2706
18528THY    HA353669   7.126   5.071   3.672 -0.3911 -1.0599 -0.7099
18528THY    CA453670   7.246   5.167   3.826  0.7564 -0.4084  0.0866
18528THY    HA453671   7.179   5.131   3.903 -0.0697 -1.7344 -1.3593
18528THY    CA553672   7.344   5.260   3.854 -0.4227 -0.3499 -0.1161
18528THY    CM153673   7.361   5.323   3.989 -0.2009 -0.5907 -0.0554
18528THY    HM153674   7.459   5.366   4.011 -0.5140 -0.7709  0.7829
18528THY    HM253675   7.335   5.247   4.064 -2.2972  0.4043  1.5399
18528THY    HM353676   7.291   5.407   4.001  0.8388 -0.0537  0.7560
18528THY    CA653677   7.438   5.291   3.753 -0.1174  0.2658 -0.6724
18528THY    HA653678   7.512   5.368   3.769 -1.7173 -2.9880  1.8239
18529THY      O53679   8.144   2.274   2.108  0.2722  0.3044  0.2849
18529THY     HO53680   8.059   2.259   2.063  1.4823 -2.3814  0.8366
18529THY    CA153681   8.130   2.221   2.230 -0.4008  0.0325  0.0455
18529THY    CA253682   8.182   2.284   2.339 -0.5499 -0.0633 -0.1288
18529THY    CP153683   8.274   2.411   2.326 -0.3572 -0.2590 -0.3278
18529THY    HP153684   8.333   2.399   2.234  1.1455  0.8741 -2.3807
18529THY    CP253685   8.391   2.419   2.433  0.4860 -0.4837  0.4476
18529THY    HP253686   8.470   2.487   2.400  0.7328 -0.9780 -0.0747
18529THY    HP353687   8.431   2.318   2.451  1.3897  1.8497  1.1542
18529THY    HP453688   8.350   2.451   2.529  2.0958  1.1729 -2.1088
18529THY    CP353689   8.188   2.533   2.308  0.0644 -0.1077  0.2383
18529THY    HP553690   8.103   2.517   2.242 -0.4195  0.3729  0.7970
18529THY    HP653691   8.255   2.601   2.254  0.6151 -0.7857 -0.8067
18529THY    HP753692   8.151   2.566   2.406  0.4094  1.2315 -2.9696
18529THY    CA353693   8.143   2.239   2.466  0.5157 -0.3057 -0.0171
18529THY    HA353694   8.187   2.288   2.553  1.9154 -0.5589 -0.7652
18529THY    CA453695   8.058   2.125   2.485  0.0541  0.2831 -0.1126
18529THY    HA453696   8.032   2.077   2.578 -0.3542 -0.9527 -2.4119
18529THY    CA553697   8.020   2.057   2.372  0.2271 -0.1544  1.1684
18529THY    CM153698   7.936   1.928   2.398 -0.0315  0.6885 -0.1466
18529THY    HM153699   7.885   1.918   2.495 -0.2794  0.3491 -3.4296
18529THY    HM253700   7.991   1.835   2.379  1.8618 -2.2660  1.4037
18529THY    HM353701   7.847   1.932   2.333  0.3718  0.1896  1.4009
18529THY    CA653702   8.044   2.115   2.248  0.7878  0.0098  0.6823
18529THY    HA653703   8.005   2.067   2.158 -0.4617  0.4733  0.8134
18530THY      O53704   5.767   0.380   6.323 -0.1894  0.1809 -0.1717
18530THY     HO53705   5.745   0.450   6.387 -1.9457 -0.5037 -0.0438
18530THY    CA153706   5.748   0.433   6.198 -0.4811  0.0772 -0.2145
18530THY    CA253707   5.836   0.404   6.086 -0.1658  0.1094  0.4514
18530THY    CP153708   5.976   0.344   6.106 -0.0803  0.1158  0.4755
18530THY    HP153709   5.978   0.303   6.208 -0.4804 -0.1033 -0.1110
18530THY    CP253710   6.078   0.459   6.109  0.4058 -0.0629 -0.7146
18530THY    HP253711   6.074   0.516   6.016 -2.3671  0.9431  0.9551
18530THY    HP353712   6.182   0.430   6.128  1.6530 -2.6387  1.6557
18530THY    HP453713   6.045   0.529   6.187 -1.8715 -0.2926 -1.4804
18530THY    CP353714   6.023   0.245   5.992  0.1631 -0.8401  0.2730
18530THY    HP553715   5.976   0.146   6.002 -0.8823  0.1485  0.8465
18530THY    HP653716   6.131   0.229   6.004  0.4100  2.0042  3.1512
18530THY    HP753717   5.998   0.278   5.891 -0.3860 -1.4476 -1.8453
18530THY    CA353718   5.798   0.463   5.956  0.0882 -0.2202 -0.2045
18530THY    HA353719   5.852   0.453   5.862 -2.0369 -1.6219  0.7605
18530THY    CA453720   5.681   0.535   5.937  0.5172 -0.3362  0.1059
18530THY    HA453721   5.645   0.570   5.840 -1.7911 -0.1358 -1.4634
18530THY    CA553722   5.598   0.565   6.050 -0.0968 -0.6817  0.1530
18530THY    CM153723   5.466   0.638   6.024  0.2602  0.1560  0.5581
18530THY    HM153724   5.447   0.648   5.917  0.4541  0.3253  3.6099
18530THY    HM253725   5.470   0.735   6.074  0.3883  1.4621 -0.0964
18530THY    HM353726   5.377   0.588   6.065  0.4195  1.3886  1.2441
18530THY    CA653727   5.630   0.507   6.170  0.6879  0.8245  0.1190
18530THY    HA653728   5.548   0.504   6.241 -1.4285 -1.5028 -1.4150
18531THY      O53729   3.927   7.609   4.118 -0.7764  0.2262  0.0422
18531THY     HO53730   3.936   7.684   4.057 -2.0732  0.1557  0.1749
18531THY    CA153731   4.036   7.606   4.188  0.0263  0.6498 -0.0802
18531THY    CA253732   4.085   7.483   4.232 -0.3630  0.1845  0.2072
18531THY    CP153733   4.011   7.351   4.225  0.1175 -0.1550  0.3438
18531THY    HP153734   3.904   7.366   4.241  0.3290  1.1241  0.6543
18531THY    CP253735   4.051   7.238   4.319  0.1661 -0.1214  0.4105
18531THY    HP253736   4.052   7.274   4.423  1.3315 -0.2076  0.6904
18531THY    HP353737   4.150   7.200   4.289  0.2655  2.2135 -1.3486
18531THY    HP453738   3.981   7.155   4.304  1.1015 -0.2741 -0.3678
18531THY    CP353739   4.011   7.297   4.086 -0.3960  0.4354 -0.1112
18531THY    HP553740   3.964   7.378   4.029 -1.2064 -0.6345 -1.3000
18531THY    HP653741   3.953   7.204   4.085  0.3901 -0.5081 -0.5997
18531THY    HP753742   4.111   7.282   4.044 -0.7119 -0.6159  0.6101
18531THY    CA353743   4.212   7.493   4.305 -0.1738 -0.0919  0.0946
18531THY    HA353744   4.253   7.402   4.347 -2.7725  2.3960 -0.0775
18531THY    CA453745   4.274   7.622   4.321 -0.5783  0.7702  0.7655
18531THY    HA453746   4.362   7.627   4.385 -0.1743  0.3598 -0.6488
18531THY    CA553747   4.223   7.739   4.258 -0.7702  0.9974  1.0483
18531THY    CM153748   4.288   7.872   4.254 -0.2683 -0.4864 -0.2320
18531THY    HM153749   4.398   7.865   4.260 -0.2520 -1.6668 -1.2895
18531THY    HM253750   4.259   7.925   4.346  2.0229 -0.2827  0.8046
18531THY    HM353751   4.271   7.936   4.167  2.8865 -0.8497  0.3122
18531THY    CA653752   4.100   7.728   4.197  0.1454 -0.0189 -0.0486
18531THY    HA653753   4.058   7.824   4.168 -0.1935  1.0763  0.1375
18532THY      O53754   0.849   6.734   6.705 -0.2247 -0.6272  0.0337
18532THY     HO53755   0.910   6.807   6.721 -0.5455  1.5509 -0.1214
18532THY    CA153756   0.927   6.656   6.631 -0.5238 -0.1708 -0.0151
18532THY    CA253757   0.893   6.567   6.528 -0.5688  0.0270  0.2525
18532THY    CP153758   0.751   6.549   6.482 -0.5042  0.2852  0.4652
18532THY    HP153759   0.687   6.628   6.522  0.7414 -0.6709  2.0012
18532THY    CP253760   0.701   6.416   6.533  0.4603 -0.5291  1.3081
18532THY    HP253761   0.711   6.418   6.642  0.2360 -0.4600 -0.0542
18532THY    HP353762   0.761   6.333   6.494  1.1956  0.6026  1.2906
18532THY    HP453763   0.596   6.401   6.505  0.5879 -0.3038 -0.2100
18532THY    CP353764   0.735   6.566   6.328  0.3070 -0.6124 -0.3258
18532THY    HP553765   0.795   6.495   6.270  0.5526  0.3530 -0.9219
18532THY    HP653766   0.750   6.670   6.294 -1.0578  0.7906  0.3807
18532THY    HP753767   0.630   6.541   6.309 -0.0739 -1.0700  1.4211
18532THY    CA353768   0.994   6.490   6.456 -0.3000  0.3861 -0.7857
18532THY    HA353769   0.961   6.424   6.376 -0.6544 -0.0318 -0.1077
18532THY    CA453770   1.131   6.508   6.489  0.0391  0.8323  0.0772
18532THY    HA453771   1.212   6.458   6.437 -0.7336  0.1150 -0.4719
18532THY    CA553772   1.164   6.593   6.595 -0.7032  0.7469 -0.2666
18532THY    CM153773   1.309   6.624   6.620 -0.2659  0.2841 -0.4031
18532THY    HM153774   1.377   6.605   6.536 -1.3045 -0.1099 -2.6580
18532THY    HM253775   1.345   6.563   6.704 -0.1131  1.8207  1.6831
18532THY    HM353776   1.317   6.727   6.657 -2.1253 -1.5014  0.4572
18532THY    CA653777   1.062   6.663   6.673  0.1589  0.0578  0.6669
18532THY    HA653778   1.090   6.735   6.749  1.3450 -0.1582  0.4566
18533THY      O53779   5.228   5.303   5.277  0.1150  0.3302  0.4622
18533THY     HO53780   5.252   5.374   5.215 -2.9346 -0.4560  0.9473
18533THY    CA153781   5.147   5.222   5.208  0.2309 -0.1077  0.9237
18533THY    CA253782   5.078   5.114   5.268  0.4814  0.7213  0.2617
18533THY    CP153783   5.086   5.081   5.418  0.1235  0.1991  0.2506
18533THY    HP153784   5.172   5.134   5.460 -0.3444  0.9821  0.4086
18533THY    CP253785   5.112   4.923   5.445  0.1916  0.0097 -0.4239
18533THY    HP253786   5.146   4.893   5.544  0.0217 -0.2705 -1.5920
18533THY    HP353787   5.204   4.891   5.396 -0.4928 -0.6145 -1.4947
18533THY    HP453788   5.023   4.864   5.418  0.2937 -0.2502 -0.4594
18533THY    CP353789   4.975   5.124   5.504  0.0875  0.5802  0.4655
18533THY    HP553790   4.927   5.219   5.477 -0.8505 -0.6803 -0.3262
18533THY    HP653791   5.006   5.134   5.608 -0.3363  0.6886  0.6907
18533THY    HP753792   4.901   5.044   5.494  2.0391 -0.6993 -1.2861
18533THY    CA353793   4.987   5.045   5.189 -0.0849  0.0051  1.3113
18533THY    HA353794   4.916   4.976   5.233 -0.5419  1.5497  2.7145
18533THY    CA453795   4.987   5.060   5.052 -0.5194 -0.8592 -0.3445
18533THY    HA453796   4.925   5.001   4.985  1.3881 -1.8369 -1.3495
18533THY    CA553797   5.068   5.166   4.995 -0.3073 -0.2033  1.4257
18533THY    CM153798   5.051   5.183   4.845 -0.4034  0.2634  0.0639
18533THY    HM153799   5.117   5.114   4.791 -1.9686 -2.3738  0.5074
18533THY    HM253800   5.086   5.285   4.826  0.9793  0.5942 -0.3131
18533THY    HM353801   4.951   5.161   4.808 -0.0463  0.9331 -3.1548
18533THY    CA653802   5.142   5.250   5.075  0.1404  0.1398 -0.0194
18533THY    HA653803   5.211   5.318   5.025  0.0928 -1.0104 -0.7832
18534THY      O53804   6.706   8.427   4.486 -0.1878 -0.7798  0.5489
18534THY     HO53805   6.736   8.397   4.398  0.9232 -0.1640 -0.2127
18534THY    CA153806   6.792   8.376   4.581 -0.2543 -0.1030 -0.3291
18534THY    CA253807   6.772   8.392   4.719  0.1222  0.5597  0.5306
18534THY    CP153808   6.660   8.479   4.770 -0.4301 -0.8460 -0.3631
18534THY    HP153809   6.608   8.540   4.695  0.0770  0.2002  1.4050
18534THY    CP253810   6.702   8.589   4.872 -0.5157 -0.8309  0.8880
18534THY    HP253811   6.621   8.663   4.872 -0.2975 -2.7773  1.1722
18534THY    HP353812   6.792   8.635   4.829 -0.4330 -0.2766  1.2617
18534THY    HP453813   6.725   8.539   4.967 -0.1816 -1.0477  0.6282
18534THY    CP353814   6.551   8.394   4.839  0.4011  0.8733  0.0216
18534THY    HP553815   6.484   8.452   4.903  0.8067  0.2706  1.1848
18534THY    HP653816   6.597   8.316   4.901  0.5384 -0.7604 -1.2535
18534THY    HP753817   6.493   8.345   4.760  3.9291 -1.5161 -0.6793
18534THY    CA353818   6.858   8.331   4.809 -0.0151 -0.4593 -0.4849
18534THY    HA353819   6.835   8.346   4.914  2.9917  0.1684  0.2785
18534THY    CA453820   6.969   8.258   4.767 -0.2843 -0.0584 -0.4878
18534THY    HA453821   7.042   8.216   4.837 -2.0583  1.1904 -1.6338
18534THY    CA553822   6.997   8.265   4.629 -0.2041  0.2819  0.5016
18534THY    CM153823   7.131   8.210   4.593 -0.1733 -0.1687  0.3940
18534THY    HM153824   7.148   8.216   4.485 -2.6982 -0.6428  0.1394
18534THY    HM253825   7.158   8.111   4.631 -0.3169  0.3376  0.5462
18534THY    HM353826   7.211   8.277   4.627  0.4291 -1.6964  0.4878
18534THY    CA653827   6.912   8.320   4.538 -0.2463  0.3015 -0.0292
18534THY    HA653828   6.945   8.328   4.435 -1.0538 -0.0094 -0.5748
18535THY      O53829   4.523   1.152   4.966 -0.0941  0.4267 -0.0997
18535THY     HO53830   4.435   1.162   4.926 -0.4044  0.3409 -2.5528
18535THY    CA153831   4.484   1.111   5.092 -0.1066  0.4630  0.9494
18535THY    CA253832   4.573   1.053   5.178  0.1652 -0.6292  0.5863
18535THY    CP153833   4.720   1.025   5.139 -0.7831 -0.4056  0.3328
18535THY    HP153834   4.722   0.965   5.048 -1.6948  0.2840 -0.7860
18535THY    CP253835   4.797   0.935   5.230  0.4924  0.5537 -0.6497
18535THY    HP253836   4.752   0.836   5.240 -0.6663 -2.3859 -0.5263
18535THY    HP353837   4.818   0.970   5.332  0.1941 -0.1932  1.9855
18535THY    HP453838   4.895   0.930   5.181  0.8211  0.8909  1.3051
18535THY    CP353839   4.810   1.154   5.124  0.7951 -1.0591 -0.3382
18535THY    HP553840   4.769   1.237   5.067 -0.9278  2.8291  1.7373
18535THY    HP653841   4.912   1.133   5.088  1.6590  1.5909 -1.1163
18535THY    HP753842   4.826   1.204   5.220 -0.4751 -0.8052 -0.3975
18535THY    CA353843   4.531   1.017   5.307  0.2899  0.4501 -0.0353
18535THY    HA353844   4.598   0.970   5.378  2.5049  0.0791  2.3412
18535THY    CA453845   4.390   1.036   5.339 -0.2082 -0.8538  0.4540
18535THY    HA453846   4.350   1.017   5.437 -1.5207 -1.4287  0.1819
18535THY    CA553847   4.293   1.082   5.240 -0.2755 -0.4808 -0.2341
18535THY    CM153848   4.143   1.094   5.266  0.5832  0.3899  0.2842
18535THY    HM153849   4.096   1.039   5.348 -1.1069  0.1295  1.2719
18535THY    HM253850   4.087   1.065   5.175  0.6977  0.9918 -2.0403
18535THY    HM353851   4.116   1.195   5.299 -0.0629  0.4059  0.1093
18535THY    CA653852   4.337   1.126   5.115 -0.3578 -0.0116  0.0534
18535THY    HA653853   4.265   1.172   5.046  0.9628 -1.0423  0.6534
18536THY      O53854   5.369   2.135   1.970  0.1588  0.0235 -0.1374
18536THY     HO53855   5.459   2.114   1.940  0.4551  2.5949 -3.5047
18536THY    CA153856   5.391   2.173   2.098  0.1893  0.2758  0.4745
18536THY    CA253857   5.315   2.110   2.195  0.2427 -1.2484 -0.0898
18536THY    CP153858   5.199   2.019   2.158 -0.2762 -0.4225  0.4097
18536THY    HP153859   5.162   2.057   2.062  0.2378 -0.0923  1.8517
18536THY    CP253860   5.076   2.034   2.260 -0.7197 -0.5193  0.8289
18536THY    HP253861   4.988   1.996   2.207 -0.6356  1.2756 -2.1077
18536THY    HP353862   5.064   2.141   2.280 -3.4376  0.4241  0.4162
18536THY    HP453863   5.108   1.973   2.345 -0.2162  0.2300  2.0937
18536THY    CP353864   5.245   1.869   2.141  0.1856 -0.6018 -0.6449
18536THY    HP553865   5.257   1.815   2.236  1.9810 -1.2647 -1.4868
18536THY    HP653866   5.343   1.867   2.092  1.0769  1.0143  0.6341
18536THY    HP753867   5.179   1.809   2.077  2.4524 -0.6825 -3.2590
18536THY    CA353868   5.340   2.144   2.334  0.0793  0.2155  0.1265
18536THY    HA353869   5.282   2.094   2.411 -1.2622 -0.6178  0.3676
18536THY    CA453870   5.453   2.229   2.359  0.2686 -0.0256  0.2612
18536THY    HA453871   5.482   2.255   2.460  1.4931 -0.6359  1.3516
18536THY    CA553872   5.514   2.296   2.259  0.3243  0.2918  0.1245
18536THY    CM153873   5.634   2.388   2.289  0.1983  0.0695 -0.5150
18536THY    HM153874   5.665   2.464   2.216  1.7931  0.1364 -1.0695
18536THY    HM253875   5.724   2.337   2.324  1.4177  1.2303  2.1865
18536THY    HM353876   5.608   2.446   2.379  0.4135 -0.7012  0.8311
18536THY    CA653877   5.489   2.262   2.131  0.5271  0.0586  0.9341
18536THY    HA653878   5.545   2.307   2.050  1.1644  0.5788  1.0896
18537THY      O53879   0.874   3.671   3.539 -0.5482 -0.1622 -0.3365
18537THY     HO53880   0.853   3.653   3.445 -1.7715 -0.0891  0.5688
18537THY    CA153881   1.003   3.670   3.564 -0.6759  0.8464 -0.1876
18537THY    CA253882   1.054   3.758   3.654  0.0586  1.1861 -0.1327
18537THY    CP153883   0.969   3.843   3.749  0.7288  0.2333 -0.1004
18537THY    HP153884   0.877   3.874   3.698  0.7299  0.5367  0.4112
18537THY    CP253885   1.024   3.981   3.775  0.5133  0.0639  1.2280
18537THY    HP253886   1.125   3.973   3.816  0.3274  0.1209 -2.0548
18537THY    HP353887   0.959   4.040   3.842 -0.9729  0.0874 -0.3570
18537THY    HP453888   1.024   4.042   3.684  1.1862  0.0928  1.2760
18537THY    CP353889   0.925   3.767   3.875  0.2031 -0.2528 -0.8041
18537THY    HP553890   0.868   3.837   3.937 -1.3378 -1.2608 -1.1036
18537THY    HP653891   1.009   3.728   3.933  2.6307 -1.3444  2.4208
18537THY    HP753892   0.860   3.681   3.853 -0.0525  1.4404 -1.0789
18537THY    CA353893   1.197   3.758   3.672  0.3474  0.5004 -0.2593
18537THY    HA353894   1.242   3.819   3.749  0.8599 -0.2614  0.3291
18537THY    CA453895   1.278   3.686   3.582 -0.1037  0.8061  0.2617
18537THY    HA453896   1.386   3.684   3.592  0.0667 -0.5381  1.3105
18537THY    CA553897   1.221   3.601   3.486 -0.1201  0.7136  0.0883
18537THY    CM153898   1.305   3.533   3.388  0.1966  0.1644  0.7951
18537THY    HM153899   1.349   3.443   3.432 -0.9663 -0.3199 -0.0247
18537THY    HM253900   1.386   3.604   3.364  1.0916 -0.4887 -0.4165
18537THY    HM353901   1.256   3.501   3.296  0.6963  0.6647 -1.6224
18537THY    CA653902   1.078   3.591   3.473  1.0852 -0.9093 -0.0066
18537THY    HA653903   1.026   3.531   3.398 -0.1669 -1.0922  1.2620
18538THY      O53904   4.464   7.350   6.537  0.6164  0.4228  0.2945
18538THY     HO53905   4.454   7.259   6.569 -0.5179  1.7599  0.8666
18538THY    CA153906   4.427   7.351   6.410 -0.0727 -0.2184 -0.0290
18538THY    CA253907   4.474   7.446   6.321  0.6740  0.5920  0.6427
18538THY    CP153908   4.568   7.554   6.357 -0.8632  0.4414 -0.1460
18538THY    HP153909   4.619   7.537   6.452 -0.1597  0.1631  0.3518
18538THY    CP253910   4.488   7.677   6.379  0.5018 -0.0343 -0.2847
18538THY    HP253911   4.541   7.769   6.408 -0.9713 -1.1983  0.9764
18538THY    HP353912   4.417   7.666   6.462 -0.9358 -0.9203  1.6871
18538THY    HP453913   4.431   7.711   6.292 -0.9640 -0.0120 -2.5031
18538THY    CP353914   4.673   7.592   6.252 -0.1535 -0.0471 -0.3712
18538THY    HP553915   4.713   7.498   6.211  3.7940 -0.3968  1.2499
18538THY    HP653916   4.739   7.661   6.306  0.5189 -0.2100 -0.8791
18538THY    HP753917   4.636   7.638   6.160 -1.1538 -1.2163 -3.3268
18538THY    CA353918   4.424   7.430   6.185  0.1462  0.1124  0.3675
18538THY    HA353919   4.446   7.512   6.117 -0.6811  0.3226  0.7748
18538THY    CA453920   4.324   7.334   6.147 -0.4354  0.5226 -0.3699
18538THY    HA453921   4.282   7.341   6.048 -0.4781  0.6079  0.8543
18538THY    CA553922   4.279   7.252   6.238 -0.0533  0.2084  0.5204
18538THY    CM153923   4.174   7.154   6.213  0.6915  0.4465  0.1342
18538THY    HM153924   4.089   7.191   6.272  0.6492  0.4226  0.0740
18538THY    HM253925   4.203   7.055   6.250 -1.7260  1.5083 -0.2459
18538THY    HM353926   4.147   7.147   6.107 -0.5788  0.6641  1.2108
18538THY    CA653927   4.327   7.264   6.368 -0.2415 -0.4831  0.2768
18538THY    HA653928   4.292   7.199   6.447 -0.6264  2.1031  3.3426
18539THY      O53929   0.659   6.702   7.264  0.0592 -0.3888 -0.6841
18539THY     HO53930   0.591   6.710   7.195 -0.7455  0.5575  1.7037
18539THY    CA153931   0.730   6.583   7.241 -0.0737 -0.4192 -0.7161
18539THY    CA253932   0.778   6.495   7.342  0.0519  0.6263  0.0418
18539THY    CP153933   0.719   6.515   7.481 -0.0860  0.4208 -0.9000
18539THY    HP153934   0.690   6.621   7.493  0.5205 -0.8160 -0.5779
18539THY    CP253935   0.816   6.478   7.591 -0.3744  0.2077 -0.0167
18539THY    HP253936   0.912   6.531   7.588  0.3180  0.2748 -1.2177
18539THY    HP353937   0.847   6.372   7.596  1.4437 -0.3391  0.4418
18539THY    HP453938   0.776   6.506   7.690  1.7562  0.6455  1.7972
18539THY    CP353939   0.598   6.433   7.507 -0.0140 -0.0604  0.2403
18539THY    HP553940   0.610   6.325   7.489 -2.7464 -2.5422  0.2245
18539THY    HP653941   0.524   6.474   7.438 -0.1316  0.2003  0.4673
18539THY    HP753942   0.552   6.445   7.606  0.4676  0.1624  0.2639
18539THY    CA353943   0.856   6.377   7.308  0.0870 -0.7765  0.3174
18539THY    HA353944   0.874   6.302   7.385 -1.3625  0.8241  1.5296
18539THY    CA453945   0.882   6.346   7.169  0.0476  0.1401  0.1878
18539THY    HA453946   0.924   6.252   7.137 -1.1451  1.7654 -0.9498
18539THY    CA553947   0.848   6.440   7.067  0.5154  0.1688 -0.3473
18539THY    CM153948   0.860   6.421   6.919 -0.1221  0.8471 -0.1654
18539THY    HM153949   0.876   6.321   6.879 -0.2949 -1.5692  0.7248
18539THY    HM253950   0.938   6.485   6.876  0.4491  1.5120 -0.3987
18539THY    HM353951   0.772   6.464   6.871 -1.0989  2.0411 -0.7662
18539THY    CA653952   0.775   6.556   7.110  0.8066  0.0591  0.1679
18539THY    HA653953   0.749   6.621   7.027  1.0182 -1.7509 -1.9488
18540THY      O53954   1.043   6.374   1.736 -0.4946  0.0810  0.0842
18540THY     HO53955   1.072   6.296   1.785 -2.9165  0.0361 -0.9321
18540THY    CA153956   0.910   6.370   1.761 -0.4701  0.1353  0.1797
18540THY    CA253957   0.819   6.476   1.750  0.1618  0.5476  0.4051
18540THY    CP153958   0.866   6.617   1.704 -0.0172  0.0109  0.1407
18540THY    HP153959   0.969   6.609   1.667  0.8068  0.5314  5.0034
18540THY    CP253960   0.888   6.712   1.823  0.4306 -0.3176  0.5146
18540THY    HP253961   0.953   6.667   1.899 -0.8710 -0.3697 -1.5880
18540THY    HP353962   0.796   6.715   1.883  0.9221  0.7207 -2.3105
18540THY    HP453963   0.937   6.804   1.790 -3.0678 -1.3842  2.1778
18540THY    CP353964   0.798   6.676   1.580  0.5546 -0.0949 -0.0652
18540THY    HP553965   0.858   6.751   1.527  0.6740 -1.4109 -1.0504
18540THY    HP653966   0.709   6.735   1.606  1.4873 -1.6354  2.1631
18540THY    HP753967   0.763   6.607   1.502 -0.0871  0.0149  0.1351
18540THY    CA353968   0.684   6.454   1.779  0.5122 -0.2481  0.3630
18540THY    HA353969   0.607   6.530   1.780  0.7159  2.7507  0.6644
18540THY    CA453970   0.649   6.326   1.813  0.1093 -0.0453 -0.5043
18540THY    HA453971   0.543   6.306   1.829  0.0932 -0.1132 -0.4753
18540THY    CA553972   0.741   6.221   1.818 -0.0113 -0.2658 -0.0997
18540THY    CM153973   0.690   6.081   1.863 -0.3925 -0.1260 -0.1363
18540THY    HM153974   0.776   6.013   1.872 -0.4763 -0.3444 -0.2724
18540THY    HM253975   0.635   6.039   1.778  0.5526 -2.1871  2.4896
18540THY    HM353976   0.643   6.094   1.961  1.1112  0.3197  2.6285
18540THY    CA653977   0.874   6.240   1.803  0.0676  0.3522  1.0836
18540THY    HA653978   0.941   6.155   1.802 -1.3236 -0.7737 -0.0493
18541THY      O53979   4.620   6.991   7.482 -0.3437 -0.4430  0.0172
18541THY     HO53980   4.705   7.031   7.508 -1.0662 -1.6515  2.5622
18541THY    CA153981   4.613   7.028   7.357  0.4507  0.4378 -0.2453
18541THY    CA253982   4.489   7.084   7.310  0.2461 -0.2558  1.5850
18541THY    CP153983   4.370   7.082   7.399  0.2413  0.7194  0.0541
18541THY    HP153984   4.387   7.037   7.498  2.5540 -1.0546 -3.4038
18541THY    CP253985   4.259   6.997   7.318  0.3191 -0.1585 -0.7833
18541THY    HP253986   4.160   6.986   7.363 -0.7937 -2.1902  0.2516
18541THY    HP353987   4.303   6.897   7.324  0.5579  1.2351 -0.6075
18541THY    HP453988   4.238   7.031   7.216  0.5414  0.7626  2.4911
18541THY    CP353989   4.314   7.229   7.402 -0.2464 -0.2545 -0.2111
18541THY    HP553990   4.234   7.240   7.476  0.7524  0.6126  1.7401
18541THY    HP653991   4.280   7.259   7.302  2.0690 -1.0877 -0.1547
18541THY    HP753992   4.389   7.305   7.428 -0.6557  2.1565 -0.5547
18541THY    CA353993   4.482   7.125   7.180 -0.2834 -0.4005  0.8284
18541THY    HA353994   4.386   7.157   7.139 -1.0085 -0.0178 -0.7639
18541THY    CA453995   4.590   7.104   7.095 -0.4319 -0.4075  0.7506
18541THY    HA453996   4.583   7.125   6.988  1.0587 -1.0338 -1.4986
18541THY    CA553997   4.714   7.070   7.144  0.3673  0.1954  0.1510
18541THY    CM153998   4.825   7.058   7.043 -0.4101  0.9440  0.1073
18541THY    HM153999   4.795   7.018   6.945 -1.9362  1.9264 -1.2719
18541THY    HM254000   4.910   7.001   7.081  0.5477  2.3416  2.3301
18541THY    HM354001   4.865   7.158   7.021 -0.9005  1.7171  0.4789
18541THY    CA654002   4.726   7.031   7.275 -0.1909 -0.2091  0.7242
18541THY    HA654003   4.822   7.003   7.318 -0.7544  0.8613  0.3725
18542THY      O54004   3.519   3.833   6.461  0.3063 -0.5802 -0.4352
18542THY     HO54005   3.423   3.843   6.475  0.7291  1.1018  2.0974
18542THY    CA154006   3.545   3.744   6.355  0.8748 -0.3943 -0.5469
18542THY    CA254007   3.671   3.744   6.288  0.5331 -0.3223 -0.1489
18542THY    CP154008   3.788   3.828   6.339  0.1005 -0.3844  0.6765
18542THY    HP154009   3.798   3.810   6.447  3.1849 -0.6702  0.1922
18542THY    CP254010   3.769   3.972   6.306 -0.3392  0.3276 -0.7703
18542THY    HP254011   3.863   4.028   6.313  0.1338 -0.6347 -1.4181
18542THY    HP354012   3.694   4.017   6.372  0.6651 -0.3373  2.1696
18542THY    HP454013   3.741   3.986   6.201 -1.2851  0.6431 -0.2022
18542THY    CP354014   3.924   3.772   6.289  0.2526 -0.4604  0.4707
18542THY    HP554015   4.009   3.810   6.347 -0.9778  2.8099 -1.3394
18542THY    HP654016   3.943   3.794   6.184 -1.2276 -1.4172 -2.3347
18542THY    HP754017   3.938   3.665   6.306  0.8973 -0.3607  0.5693
18542THY    CA354018   3.679   3.662   6.170 -0.3212 -0.6179  0.8236
18542THY    HA354019   3.770   3.662   6.111 -0.5337 -0.9523  0.4060
18542THY    CA454020   3.576   3.571   6.143 -0.0364 -0.1487  0.3194
18542THY    HA454021   3.589   3.505   6.057 -1.7588  1.3811 -2.1431
18542THY    CA554022   3.451   3.582   6.209 -0.2778  0.4937 -0.3631
18542THY    CM154023   3.338   3.499   6.155  0.0612  0.4996 -0.2454
18542THY    HM154024   3.372   3.440   6.070  2.9279  1.4317 -0.1337
18542THY    HM254025   3.255   3.563   6.123  0.7009 -1.1117 -0.1761
18542THY    HM354026   3.295   3.431   6.230 -2.9486 -1.9308 -1.1955
18542THY    CA654027   3.438   3.666   6.312 -0.1306  0.4022 -0.5930
18542THY    HA654028   3.344   3.659   6.367 -1.0012 -0.8246  0.7244
18543THY      O54029   5.053   5.790   7.724  0.0703 -0.4407  0.7202
18543THY     HO54030   5.104   5.795   7.807 -0.5713 -0.0717  1.5052
18543THY    CA154031   5.125   5.857   7.637 -0.3437  0.3850  0.6047
18543THY    CA254032   5.066   5.907   7.517  0.1344 -0.4147 -0.1399
18543THY    CP154033   4.923   5.865   7.480  0.3298 -0.1789 -0.1155
18543THY    HP154034   4.900   5.779   7.543 -1.1470  1.3222  1.2781
18543THY    CP254035   4.898   5.834   7.332  0.5609  0.0528 -0.0487
18543THY    HP254036   4.804   5.779   7.325  0.6919  0.9488 -0.3939
18543THY    HP354037   4.979   5.766   7.304  0.7031 -0.9613  0.5050
18543THY    HP454038   4.896   5.931   7.280  0.9744  0.2943  0.0932
18543THY    CP354039   4.829   5.973   7.540  0.2400 -0.5910  0.7485
18543THY    HP554040   4.729   5.962   7.497  0.3502 -1.2820  2.2542
18543THY    HP654041   4.860   6.075   7.519  1.5240 -0.0841  0.4854
18543THY    HP754042   4.827   5.967   7.650  0.6343 -0.6002  0.4051
18543THY    CA354043   5.140   5.988   7.429  0.0446  0.3863 -0.3895
18543THY    HA354044   5.101   6.011   7.331  1.8071 -0.1191  0.6220
18543THY    CA454045   5.273   6.019   7.460  0.8114 -0.1741 -0.8305
18543THY    HA454046   5.336   6.078   7.394  0.7618  0.9217  0.4814
18543THY    CA554047   5.336   5.966   7.572 -0.4628  0.2394  0.2848
18543THY    CM154048   5.488   5.984   7.588  0.0407 -0.5385 -0.3225
18543THY    HM154049   5.533   5.923   7.667 -0.0395  0.8661  1.3848
18543THY    HM254050   5.518   6.087   7.608  0.4035  0.4660 -0.6140
18543THY    HM354051   5.529   5.948   7.493  0.8806 -0.5403  0.5937
18543THY    CA654052   5.259   5.892   7.662  0.3052  0.4394 -0.4285
18543THY    HA654053   5.313   5.854   7.749 -0.6514  1.8902  1.3866
18544THY      O54054   4.652   2.614   4.044  0.6702 -0.3750 -0.0808
18544THY     HO54055   4.659   2.666   3.962  0.7055 -1.1791 -1.3170
18544THY    CA154056   4.556   2.673   4.120  0.0468 -0.1056  0.5171
18544THY    CA254057   4.460   2.598   4.188 -1.2152  0.2362 -0.3408
18544THY    CP154058   4.476   2.445   4.207 -0.9027 -0.0605  0.4265
18544THY    HP154059   4.583   2.423   4.216 -0.2610  1.8256  3.5993
18544THY    CP254060   4.426   2.350   4.098  0.4611 -0.5040 -0.5174
18544THY    HP254061   4.317   2.355   4.095  0.3458  2.4648  1.0164
18544THY    HP354062   4.444   2.243   4.116 -1.6724 -0.3382 -0.8884
18544THY    HP454063   4.469   2.370   3.999 -0.8128 -1.0587 -0.4624
18544THY    CP354064   4.422   2.393   4.347  0.7750 -0.4713  0.0435
18544THY    HP554065   4.484   2.440   4.425  0.5736  1.4026 -2.6089
18544THY    HP654066   4.426   2.284   4.354 -2.1954 -2.5180 -0.3118
18544THY    HP754067   4.319   2.422   4.367  0.9925 -1.3242  1.5128
18544THY    CA354068   4.347   2.665   4.244  0.1769  0.4165 -0.1922
18544THY    HA354069   4.278   2.618   4.313 -0.1687  1.3815  1.6227
18544THY    CA454070   4.351   2.805   4.235  0.6899  0.4450 -0.0448
18544THY    HA454071   4.271   2.849   4.294  2.2122  3.6668 -1.2671
18544THY    CA554072   4.452   2.876   4.168 -0.7745 -0.0792  0.1568
18544THY    CM154073   4.457   3.026   4.173  0.5122 -0.3826  0.0565
18544THY    HM154074   4.372   3.072   4.224  1.3612  2.6725 -1.4392
18544THY    HM254075   4.469   3.080   4.079 -1.3020  0.7545  2.6586
18544THY    HM354076   4.538   3.057   4.240 -1.4795  0.6752  3.5143
18544THY    CA654077   4.551   2.804   4.103 -0.6243 -0.1173 -0.7222
18544THY    HA654078   4.622   2.858   4.041 -1.1137 -0.3214 -0.3109
18545THY      O54079   3.637   0.457   5.092 -0.3812 -0.0823 -0.3007
18545THY     HO54080   3.599   0.409   5.167 -0.2659  0.8862  1.0685
18545THY    CA154081   3.716   0.560   5.135  0.6750  0.5592 -0.3420
18545THY    CA254082   3.770   0.649   5.041 -0.1082  0.9879 -0.5875
18545THY    CP154083   3.766   0.606   4.887 -0.1668 -0.2882 -0.2347
18545THY    HP154084   3.718   0.509   4.874  2.2292 -1.1124 -1.3738
18545THY    CP254085   3.900   0.592   4.825 -0.4898 -0.0880  0.6654
18545THY    HP254086   3.970   0.553   4.900 -2.3953  0.3754 -2.1544
18545THY    HP354087   3.926   0.695   4.797 -3.0690  0.7966  1.6638
18545THY    HP454088   3.898   0.529   4.735 -0.8926 -0.2506  0.9046
18545THY    CP354089   3.695   0.711   4.799 -0.2536 -0.2093 -0.3880
18545THY    HP554090   3.721   0.812   4.832 -2.2782 -0.4194  0.2483
18545THY    HP654091   3.586   0.718   4.807 -0.2095 -0.0038  0.1121
18545THY    HP754092   3.720   0.702   4.693  0.8209  0.1160 -1.6395
18545THY    CA354093   3.845   0.757   5.080 -0.4463 -0.4337 -0.0120
18545THY    HA354094   3.888   0.832   5.014 -0.2083  0.8974  1.0580
18545THY    CA454095   3.866   0.769   5.219 -0.0946 -0.4987 -0.4578
18545THY    HA454096   3.920   0.853   5.262 -2.0136  1.3325 -0.1093
18545THY    CA554097   3.814   0.684   5.312  0.4778 -0.3191  0.2785
18545THY    CM154098   3.843   0.711   5.458  0.0800 -0.8160  1.3499
18545THY    HM154099   3.758   0.750   5.513 -0.8648 -0.2366 -1.2991
18545THY    HM254100   3.931   0.777   5.463  1.2396  0.0945 -0.1917
18545THY    HM354101   3.871   0.619   5.511 -1.2580 -2.5221 -0.1342
18545THY    CA654102   3.737   0.577   5.269  0.0112  0.2713 -0.1422
18545THY    HA654103   3.705   0.500   5.338  0.7215 -0.2492 -0.9201
18546THY      O54104   1.087   9.391   1.684  0.0361 -0.7293  0.0524
18546THY     HO54105   1.040   9.475   1.673  1.2654 -1.0314  0.7122
18546THY    CA154106   1.025   9.328   1.786 -0.1422  0.0432  0.3592
18546THY    CA254107   1.040   9.192   1.804  0.0440 -0.2007  0.0278
18546THY    CP154108   1.142   9.111   1.725  0.2587  0.5330  0.2643
18546THY    HP154109   1.194   9.173   1.651 -0.2058  0.3593  0.4535
18546THY    CP254110   1.073   9.000   1.648  0.8350 -0.2407 -0.3096
18546THY    HP254111   0.980   9.039   1.606  0.4653 -2.3982 -3.1849
18546THY    HP354112   1.047   8.924   1.723  1.4810  1.4164  1.0520
18546THY    HP454113   1.133   8.967   1.562  1.3935  0.0591 -0.0950
18546THY    CP354114   1.254   9.052   1.821  0.1556 -0.2703  0.2503
18546THY    HP554115   1.351   9.023   1.779  0.9325  2.1943 -1.0419
18546THY    HP654116   1.225   8.958   1.869  1.4355 -0.7307 -0.4010
18546THY    HP754117   1.269   9.130   1.896  1.1208  0.5309 -0.6745
18546THY    CA354118   0.965   9.135   1.896 -0.1041 -0.3803 -0.2843
18546THY    HA354119   0.975   9.029   1.916 -2.5431  0.3703 -0.4291
18546THY    CA454120   0.879   9.206   1.978  0.0917 -0.3414  0.3170
18546THY    HA454121   0.821   9.154   2.053  2.6280  1.6363  0.1177
18546THY    CA554122   0.857   9.341   1.963  0.4408 -0.3035  0.0152
18546THY    CM154123   0.750   9.417   2.045 -0.3583  0.3850 -0.4564
18546THY    HM154124   0.663   9.434   1.980 -0.2677  0.6163  1.0516
18546THY    HM254125   0.789   9.518   2.060 -1.3217 -2.3158  0.4097
18546THY    HM354126   0.726   9.368   2.139  0.2627 -0.9800 -3.6016
18546THY    CA654127   0.928   9.400   1.858 -0.2575 -0.4416  0.0769
18546THY    HA654128   0.913   9.506   1.842  1.6426 -0.6846  0.3534
18547THY      O54129   7.557   0.891   7.076  0.3070 -0.2845  0.2944
18547THY     HO54130   7.550   0.796   7.099 -0.4738  1.6794  0.7702
18547THY    CA154131   7.439   0.937   7.027  0.2915 -0.0402 -0.5830
18547THY    CA254132   7.436   1.060   6.964 -0.7150 -0.1225 -0.6685
18547THY    CP154133   7.569   1.148   6.963 -0.0201 -0.4418  0.6319
18547THY    HP154134   7.656   1.084   6.983  0.0582 -3.5842 -0.4321
18547THY    CP254135   7.562   1.266   7.058 -0.2221  0.6331  0.2736
18547THY    HP254136   7.638   1.344   7.050 -1.2890 -1.3395  1.1990
18547THY    HP354137   7.563   1.234   7.163  0.0042  1.2650  2.2395
18547THY    HP454138   7.462   1.307   7.041 -1.1045 -0.1081 -2.0052
18547THY    CP354139   7.596   1.190   6.828 -0.0291 -0.4807 -0.3312
18547THY    HP554140   7.700   1.223   6.823 -0.1791  1.5382  0.6580
18547THY    HP654141   7.540   1.283   6.815  0.7855  0.0327  0.2496
18547THY    HP754142   7.575   1.119   6.748 -2.3787 -0.6445  0.4432
18547THY    CA354143   7.317   1.116   6.926 -0.3001  0.4813  0.3960
18547THY    HA354144   7.310   1.215   6.881 -1.2046 -0.9754 -0.3078
18547THY    CA454145   7.202   1.047   6.935 -0.1815  0.2353  1.1008
18547THY    HA454146   7.112   1.106   6.920 -1.4296  0.3529 -0.6613
18547THY    CA554147   7.204   0.916   6.990 -0.5905  0.5654  0.1794
18547THY    CM154148   7.078   0.839   6.989 -0.4758 -0.2661 -0.8064
18547THY    HM154149   7.042   0.817   6.888 -2.4668  0.4391 -1.0033
18547THY    HM254150   7.002   0.900   7.040  0.3452 -0.2479  0.2464
18547THY    HM354151   7.070   0.758   7.061  0.4204 -0.1450 -0.7977
18547THY    CA654152   7.321   0.864   7.036 -0.3254 -1.0388  0.3339
18547THY    HA654153   7.317   0.769   7.088  0.3634 -0.1212  0.7957
18548THY      O54154   5.609   3.054   4.099 -0.4584 -0.2148 -0.1479
18548THY     HO54155   5.575   3.092   4.016 -2.0546 -0.2215 -1.4774
18548THY    CA154156   5.654   2.929   4.067  0.3373  0.3772  0.3163
18548THY    CA254157   5.644   2.825   4.152 -0.5762 -1.2429  0.0103
18548THY    CP154158   5.604   2.842   4.298  0.6275 -0.2164  0.6822
18548THY    HP154159   5.562   2.941   4.319 -1.9370 -1.3261 -0.0942
18548THY    CP254160   5.725   2.810   4.391 -0.7330  0.9553  0.5040
18548THY    HP254161   5.708   2.840   4.495 -0.8290  0.9036  0.6341
18548THY    HP354162   5.807   2.876   4.359  1.5764  2.3087 -1.5597
18548THY    HP454163   5.748   2.704   4.379 -1.6456 -0.3216  0.4261
18548THY    CP354164   5.483   2.749   4.332  0.4842  0.4273 -0.3552
18548THY    HP554165   5.468   2.748   4.441 -1.9528  0.1592  0.9814
18548THY    HP654166   5.489   2.651   4.284 -3.0230 -0.9114 -0.0416
18548THY    HP754167   5.400   2.806   4.290  1.0053 -1.5660 -0.9947
18548THY    CA354168   5.681   2.697   4.114 -0.3341  0.5310  0.2310
18548THY    HA354169   5.680   2.612   4.182 -0.4464 -0.0539 -0.2437
18548THY    CA454170   5.698   2.669   3.980 -0.2890 -0.3365  0.2155
18548THY    HA454171   5.697   2.564   3.949 -2.3797 -3.1819  0.9502
18548THY    CA554172   5.712   2.776   3.887  0.3996 -0.0508  0.0392
18548THY    CM154173   5.744   2.761   3.743  0.2901 -0.5655  0.5303
18548THY    HM154174   5.661   2.782   3.675  0.4678 -1.1444 -0.5707
18548THY    HM254175   5.785   2.660   3.730 -0.7472  2.3517 -0.3797
18548THY    HM354176   5.822   2.835   3.720  1.3124  0.4520 -0.1949
18548THY    CA654177   5.682   2.907   3.931 -0.5371  0.7521  0.1015
18548THY    HA654178   5.692   2.989   3.861 -2.7851  1.4425  1.0302
18549THY      O54179   4.876   6.946   4.798  0.0288  0.2290 -0.7766
18549THY     HO54180   4.897   7.038   4.774 -0.5307  0.2289 -0.6487
18549THY    CA154181   4.977   6.918   4.879 -0.0558  0.3645 -0.2316
18549THY    CA254182   4.978   6.798   4.947  0.0209 -1.0591 -0.3276
18549THY    CP154183   4.850   6.705   4.946 -0.6562  0.0676 -0.6981
18549THY    HP154184   4.797   6.733   4.854  1.0518 -0.7431  0.0100
18549THY    CP254185   4.771   6.732   5.075  0.5009  0.6104 -0.1042
18549THY    HP254186   4.724   6.830   5.090  1.7497  1.5536  0.3704
18549THY    HP354187   4.842   6.724   5.158  1.2778  0.2892  2.4956
18549THY    HP454188   4.699   6.650   5.089 -0.7295 -0.3205  0.7865
18549THY    CP354189   4.886   6.558   4.931  0.0866  0.1817 -0.4040
18549THY    HP554190   4.798   6.496   4.914 -0.5524  2.0718 -0.0880
18549THY    HP654191   4.944   6.530   5.020  0.9660 -0.5642 -1.0260
18549THY    HP754192   4.955   6.552   4.846 -1.2148 -0.9050 -0.2496
18549THY    CA354193   5.086   6.765   5.033 -0.1633 -0.5777  0.5406
18549THY    HA354194   5.078   6.677   5.096  2.3421 -0.1910  0.5330
18549THY    CA454195   5.193   6.865   5.058 -0.1051  0.2937 -0.4766
18549THY    HA454196   5.270   6.844   5.131  0.1379 -0.6033 -3.0923
18549THY    CA554197   5.194   6.981   4.980  0.0230  0.0737  0.2114
18549THY    CM154198   5.313   7.070   4.987  0.6155 -0.6427 -0.0747
18549THY    HM154199   5.329   7.138   4.903  0.7454 -1.1619 -0.7276
18549THY    HM254200   5.406   7.016   5.008 -0.9846  2.1272 -2.0938
18549THY    HM354201   5.308   7.129   5.079 -1.0853 -1.1328  0.6087
18549THY    CA654202   5.085   7.009   4.895  0.0010 -0.7633 -0.4308
18549THY    HA654203   5.081   7.103   4.841  1.7259 -0.5736 -0.2145
18550THY      O54204   5.526   1.649   6.564  0.4956  0.4081 -0.0822
18550THY     HO54205   5.591   1.712   6.599  1.8748  0.7212 -1.6187
18550THY    CA154206   5.605   1.579   6.477 -0.3643  0.0263 -0.9844
18550THY    CA254207   5.568   1.563   6.337  0.1921  0.0065  0.1723
18550THY    CP154208   5.443   1.632   6.289 -0.2372 -0.3444 -0.2090
18550THY    HP154209   5.364   1.606   6.360  1.3342  0.4284 -3.2543
18550THY    CP254210   5.383   1.580   6.157 -0.4091  0.3233 -1.2234
18550THY    HP254211   5.303   1.647   6.123  2.2708 -0.9914  1.5688
18550THY    HP354212   5.338   1.482   6.176  1.5642  1.5961 -1.9449
18550THY    HP454213   5.461   1.581   6.079  0.1087  0.7179  2.4030
18550THY    CP354214   5.452   1.781   6.283  0.1593 -0.0785  0.4619
18550THY    HP554215   5.508   1.823   6.368  0.1599  0.8868 -1.3644
18550THY    HP654216   5.349   1.818   6.286  0.1128  0.2123  0.3091
18550THY    HP754217   5.502   1.813   6.191  0.5244 -0.0674 -0.0557
18550THY    CA354218   5.661   1.500   6.256 -0.4493 -0.0552 -0.1550
18550THY    HA354219   5.648   1.491   6.148  1.1896 -0.1971 -1.1327
18550THY    CA454220   5.782   1.446   6.312  0.5936  0.1291  0.2047
18550THY    HA454221   5.848   1.387   6.249 -0.5573 -0.7327 -0.2161
18550THY    CA554222   5.815   1.452   6.444  0.0684 -0.5208 -0.8762
18550THY    CM154223   5.930   1.386   6.513 -0.0885  0.2398 -0.5912
18550THY    HM154224   6.025   1.419   6.471  0.5159  0.2759 -2.1713
18550THY    HM254225   5.934   1.276   6.503  0.4573  2.3432 -0.7995
18550THY    HM354226   5.937   1.409   6.620  0.5103  0.1892 -0.5150
18550THY    CA654227   5.720   1.523   6.529  0.0520  0.4743  0.5492
18550THY    HA654228   5.739   1.525   6.636 -1.2236  0.7138  0.6527
18551THY      O54229   6.417   8.645   3.376  0.2643  0.3119 -0.2947
18551THY     HO54230   6.503   8.690   3.371 -0.1628 -0.0780  0.4878
18551THY    CA154231   6.335   8.702   3.284 -0.0245  1.0646 -1.3514
18551THY    CA254232   6.221   8.645   3.226  0.1449  0.1150 -0.2375
18551THY    CP154233   6.203   8.497   3.249 -0.0383  0.9673  0.3433
18551THY    HP154234   6.261   8.458   3.334  0.6425 -0.2365 -1.3637
18551THY    CP254235   6.244   8.410   3.125  0.1143  0.1503 -0.7354
18551THY    HP254236   6.188   8.425   3.031  1.8445 -0.9640 -1.0181
18551THY    HP354237   6.231   8.304   3.148 -0.5893 -0.4314 -0.7828
18551THY    HP454238   6.348   8.437   3.104 -0.2669  0.5828  1.2527
18551THY    CP354239   6.054   8.456   3.291 -0.4686  0.2735  0.4756
18551THY    HP554240   6.044   8.348   3.306 -1.6920 -1.9178  0.2503
18551THY    HP654241   5.984   8.471   3.209 -2.3717  1.8322  0.5105
18551THY    HP754242   6.015   8.505   3.381 -2.3585  0.1941 -0.7849
18551THY    CA354243   6.128   8.720   3.150 -0.3434  1.3065  0.2641
18551THY    HA354244   6.047   8.679   3.090  1.4231 -1.4814  0.5525
18551THY    CA454245   6.165   8.851   3.129  0.1266  0.4029 -0.0367
18551THY    HA454246   6.103   8.911   3.062 -0.3262 -1.3057 -2.2700
18551THY    CA554247   6.272   8.908   3.192 -0.3544  0.3586 -1.3768
18551THY    CM154248   6.298   9.053   3.171 -0.2944  0.2161  0.3011
18551THY    HM154249   6.202   9.099   3.147 -0.8191 -1.9404 -1.7218
18551THY    HM254250   6.378   9.072   3.098  0.1761  1.1111  1.9395
18551THY    HM354251   6.335   9.093   3.266 -0.1367  0.2172  0.1543
18551THY    CA654252   6.364   8.836   3.262  0.0193 -0.1906  0.0015
18551THY    HA654253   6.450   8.884   3.308  1.0557 -2.1180  0.1112
18552THY      O54254   1.707   0.778   3.773  0.1593 -0.2751 -0.3523
18552THY     HO54255   1.644   0.851   3.758 -0.6114 -0.5297 -1.0617
18552THY    CA154256   1.723   0.713   3.661 -0.5291 -0.3347 -0.5072
18552THY    CA254257   1.749   0.574   3.661  0.2577  0.1911  0.7176
18552THY    CP154258   1.770   0.495   3.792  0.3444  0.3027  0.7212
18552THY    HP154259   1.786   0.571   3.869 -0.6009 -0.2170  1.4723
18552THY    CP254260   1.888   0.399   3.788  0.7352 -0.4117  0.2869
18552THY    HP254261   1.974   0.455   3.749 -0.0594 -0.7005  1.3282
18552THY    HP354262   1.873   0.315   3.719 -0.7036 -0.4590  0.5551
18552THY    HP454263   1.904   0.337   3.877  1.2379 -0.2496  0.6449
18552THY    CP354264   1.646   0.418   3.824 -0.0437 -0.3186  0.4543
18552THY    HP554265   1.621   0.340   3.751 -0.5894  0.2705  0.0616
18552THY    HP654266   1.559   0.485   3.824  1.0892  2.5398  2.0765
18552THY    HP754267   1.652   0.370   3.922 -0.0079 -0.8206 -0.6077
18552THY    CA354268   1.779   0.511   3.540 -0.6264 -0.0603  0.3266
18552THY    HA354269   1.794   0.404   3.530 -1.2546  2.0748  0.0005
18552THY    CA454270   1.765   0.581   3.420  0.0459 -0.3945 -0.5410
18552THY    HA454271   1.790   0.536   3.324  0.3936 -1.3636  1.5903
18552THY    CA554272   1.724   0.711   3.421  0.1631  0.0821 -0.3351
18552THY    CM154273   1.709   0.786   3.294 -0.0241  0.1027 -0.2974
18552THY    HM154274   1.618   0.847   3.302  0.2192 -1.2220  0.2737
18552THY    HM254275   1.700   0.715   3.210 -0.9385  0.8465 -1.0929
18552THY    HM354276   1.795   0.853   3.286  0.4650  1.1824 -0.7734
18552THY    CA654277   1.701   0.780   3.542  0.5256 -0.0608  0.2416
18552THY    HA654278   1.678   0.886   3.540 -0.1855  0.9905  0.1228
18553THY      O54279   6.175   1.178   1.982  0.2913  0.4544  0.2693
18553THY     HO54280   6.085   1.143   1.987  1.4596  1.5242 -3.0028
18553THY    CA154281   6.169   1.294   2.049  0.0780 -0.2585  0.2474
18553THY    CA254282   6.275   1.374   2.089 -0.3750 -0.3623  0.5351
18553THY    CP154283   6.418   1.326   2.067 -1.1220  0.8397  0.1575
18553THY    HP154284   6.418   1.282   1.966  0.8675  1.7417 -2.1230
18553THY    CP254285   6.484   1.225   2.156 -0.2146 -0.1130  0.5921
18553THY    HP254286   6.428   1.131   2.152 -0.2097  1.8145  0.4845
18553THY    HP354287   6.486   1.261   2.259 -0.7358  0.1161 -0.0195
18553THY    HP454288   6.589   1.207   2.130  0.5626  1.4897  2.4905
18553THY    CP354289   6.528   1.442   2.055  0.6266 -0.7214 -0.2525
18553THY    HP554290   6.485   1.528   2.001 -2.9040  0.3303 -1.1684
18553THY    HP654291   6.615   1.407   1.999  1.9767  0.6104  0.8438
18553THY    HP754292   6.555   1.485   2.152  0.0087 -0.9622  0.7116
18553THY    CA354293   6.256   1.496   2.153 -0.2448 -0.4833 -0.3237
18553THY    HA354294   6.333   1.572   2.153  1.0118 -0.3400 -1.5727
18553THY    CA454295   6.122   1.534   2.178  0.0789 -0.3142 -0.4252
18553THY    HA454296   6.108   1.634   2.218  1.3477 -0.2452 -0.2498
18553THY    CA554297   6.012   1.457   2.136 -0.1575 -0.0948 -0.3388
18553THY    CM154298   5.870   1.510   2.148 -0.6845 -0.0594 -0.0108
18553THY    HM154299   5.854   1.577   2.234 -1.0333  1.4472 -1.9618
18553THY    HM254300   5.797   1.428   2.147 -1.5899 -0.4617  0.7700
18553THY    HM354301   5.839   1.561   2.055  2.0039 -2.2083 -1.9630
18553THY    CA654302   6.037   1.333   2.074 -0.1956  0.0101 -0.6813
18553THY    HA654303   5.951   1.268   2.063  1.0702 -1.3858 -2.2071
18554THY      O54304   4.205   5.631   5.863 -0.3927  0.0770 -0.0750
18554THY     HO54305   4.127   5.627   5.805 -1.2913  0.9810  2.6239
18554THY    CA154306   4.260   5.750   5.826 -0.0728 -0.3250  0.1865
18554THY    CA254307   4.372   5.802   5.893 -0.1568  0.3070  0.4349
18554THY    CP154308   4.451   5.713   5.991  0.5886 -0.1478  0.3408
18554THY    HP154309   4.400   5.624   6.027  1.9071  0.5402 -0.1613
18554THY    CP254310   4.456   5.788   6.119 -0.1345 -0.8780  0.4144
18554THY    HP254311   4.354   5.819   6.144  0.4551  2.0632  0.2764
18554THY    HP354312   4.517   5.877   6.102  1.0212 -1.3703 -0.4565
18554THY    HP454313   4.491   5.718   6.197 -2.6073 -0.0064  0.0343
18554THY    CP354314   4.579   5.658   5.929  0.4574 -0.7808  0.1360
18554THY    HP554315   4.632   5.594   6.000  0.5703 -1.8706 -1.0252
18554THY    HP654316   4.647   5.740   5.904 -1.2651 -2.6117  1.0986
18554THY    HP754317   4.563   5.596   5.840 -1.3834 -1.9533  2.1356
18554THY    CA354318   4.422   5.931   5.850  0.2479  0.1944 -0.0508
18554THY    HA354319   4.517   5.974   5.880  0.8754  0.2852 -1.4460
18554THY    CA454320   4.371   5.986   5.731  0.1459  1.0441 -0.7019
18554THY    HA454321   4.415   6.073   5.684  1.1797 -1.5092 -2.4874
18554THY    CA554322   4.260   5.928   5.664  0.2829  0.1631  0.1526
18554THY    CM154323   4.200   5.995   5.546 -0.5897  0.4378  0.1137
18554THY    HM154324   4.148   5.927   5.477 -0.9956  1.7546 -0.9644
18554THY    HM254325   4.279   6.035   5.482 -1.5463 -0.8087  0.0815
18554THY    HM354326   4.138   6.077   5.585  3.7298  3.0489  2.5027
18554THY    CA654327   4.202   5.811   5.720  0.3754 -0.5634  0.5060
18554THY    HA654328   4.117   5.766   5.671  0.2522  1.5663 -1.7596
18555THY      O54329   5.280   8.537   5.390  0.2287 -0.0454 -0.0273
18555THY     HO54330   5.373   8.557   5.410  0.3348 -1.4133  1.0268
18555THY    CA154331   5.262   8.579   5.259  0.3017 -0.6443 -0.3116
18555THY    CA254332   5.144   8.549   5.184 -0.9086  0.1138  0.3271
18555THY    CP154333   5.041   8.457   5.251  0.4648  0.7170  0.0970
18555THY    HP154334   5.035   8.482   5.358  0.2037  0.4326  1.3046
18555THY    CP254335   5.073   8.310   5.218  0.2601 -0.5456 -0.5809
18555THY    HP254336   5.171   8.271   5.250 -0.3552 -0.7995 -2.4217
18555THY    HP354337   5.059   8.301   5.109  3.5530 -1.2119  0.8207
18555THY    HP454338   4.999   8.248   5.269  0.8267 -0.6527 -1.3610
18555THY    CP354339   4.891   8.482   5.214  0.6371 -0.0976 -0.2897
18555THY    HP554340   4.851   8.583   5.230  1.5188  0.4744 -0.0232
18555THY    HP654341   4.825   8.416   5.271 -0.5184  0.4313  1.2466
18555THY    HP754342   4.887   8.452   5.109  1.6303 -0.0699 -0.5405
18555THY    CA354343   5.136   8.614   5.054 -0.1243 -0.2020  0.3545
18555THY    HA354344   5.048   8.595   4.992  1.1275 -2.2017  0.8150
18555THY    CA454345   5.233   8.709   5.014  0.0175 -0.1909 -0.0096
18555THY    HA454346   5.208   8.759   4.921 -0.0620 -0.3841 -0.4046
18555THY    CA554347   5.340   8.744   5.093 -0.2815  0.0413 -0.0049
18555THY    CM154348   5.439   8.860   5.068 -0.0656  0.4297 -0.0109
18555THY    HM154349   5.526   8.827   5.010  0.2278  1.6589 -1.5489
18555THY    HM254350   5.466   8.916   5.159  1.5676  0.0101 -0.0811
18555THY    HM354351   5.380   8.926   5.004 -0.2340 -2.9419 -3.1380
18555THY    CA654352   5.354   8.672   5.213  0.1027  0.2441 -0.6372
18555THY    HA654353   5.433   8.707   5.279  1.2244 -1.7853  0.8070
18556THY      O54354   7.812   2.091   4.773  0.2195 -0.0788  0.4914
18556THY     HO54355   7.817   2.000   4.739 -0.3028 -0.0507  0.4501
18556THY    CA154356   7.870   2.075   4.899  0.3413  0.0730 -0.3932
18556THY    CA254357   7.894   2.182   4.987  0.5675  0.4260 -0.1125
18556THY    CP154358   7.836   2.325   4.960 -0.1222 -0.5086 -0.5429
18556THY    HP154359   7.842   2.352   4.854  3.0844 -0.2029  0.4764
18556THY    CP254360   7.924   2.445   4.994  0.4257  0.7124  0.3093
18556THY    HP254361   8.015   2.446   4.931 -0.7083 -0.9927  0.6367
18556THY    HP354362   7.950   2.458   5.100  0.8399  0.8209 -1.2554
18556THY    HP454363   7.870   2.539   4.977  0.3497 -0.8552  0.0146
18556THY    CP354364   7.704   2.354   5.024 -0.0613  0.7283 -0.0094
18556THY    HP554365   7.657   2.430   4.961  2.9166  0.5813  1.8535
18556THY    HP654366   7.725   2.404   5.119 -0.9935  1.2618 -0.6162
18556THY    HP754367   7.645   2.262   5.033 -1.4210  0.4369  0.8090
18556THY    CA354368   7.966   2.158   5.107  1.1343 -0.6982  0.0340
18556THY    HA354369   7.984   2.237   5.179  1.0488 -0.2102 -0.3818
18556THY    CA454370   8.002   2.023   5.142 -0.2162 -0.0652 -0.3695
18556THY    HA454371   8.064   2.005   5.229 -1.2190  0.6370 -0.4596
18556THY    CA554372   7.979   1.921   5.044 -0.0658 -0.3333 -0.0999
18556THY    CM154373   8.009   1.773   5.073  0.0737  0.1074 -0.6256
18556THY    HM154374   8.085   1.729   5.006 -1.5827 -0.3756 -2.9354
18556THY    HM254375   7.920   1.711   5.057 -1.5421  0.3297  1.5558
18556THY    HM354376   8.037   1.755   5.178 -0.0430  0.2651  0.1073
18556THY    CA654377   7.912   1.945   4.929  0.5154 -0.1938 -0.7164
18556THY    HA654378   7.892   1.868   4.855 -1.8507 -2.6024  1.9851
18557THY      O54379   1.712   8.965   6.578 -0.4051 -0.3911  0.4653
18557THY     HO54380   1.679   9.010   6.658 -1.5712 -0.5130 -0.1311
18557THY    CA154381   1.816   8.880   6.611  0.3138  0.9071  0.1490
18557THY    CA254382   1.857   8.790   6.512 -0.3518  0.0890 -0.4558
18557THY    CP154383   1.789   8.770   6.372 -0.8204 -0.1008  0.6853
18557THY    HP154384   1.712   8.846   6.355  0.6733 -2.0073  1.8766
18557THY    CP254385   1.723   8.639   6.354  0.2104 -0.4846 -0.5130
18557THY    HP254386   1.634   8.636   6.417  0.7433  0.2395 -1.4693
18557THY    HP354387   1.785   8.552   6.378 -0.9999 -2.4474 -2.0041
18557THY    HP454388   1.676   8.640   6.255  2.6810 -1.7444 -0.3278
18557THY    CP354389   1.896   8.784   6.260  0.5069 -0.7649  0.0513
18557THY    HP554390   1.964   8.698   6.253 -0.0662  1.7845 -0.7043
18557THY    HP654391   1.955   8.871   6.288 -2.1484 -0.2474  1.8044
18557THY    HP754392   1.850   8.804   6.163 -1.3242 -0.0927 -0.5768
18557THY    CA354393   1.967   8.713   6.552  0.6389  0.2191 -0.4182
18557THY    HA354394   2.004   8.645   6.477 -0.9047 -1.6959  0.7499
18557THY    CA454395   2.032   8.727   6.671  0.2197  0.2175  0.2593
18557THY    HA454396   2.123   8.672   6.693  0.9200  1.4492  1.8342
18557THY    CA554397   1.984   8.811   6.765 -0.0964  0.0880  0.6388
18557THY    CM154398   2.047   8.823   6.904 -0.5116  0.3653  0.7151
18557THY    HM154399   1.987   8.760   6.970 -0.1531  0.3472  0.3542
18557THY    HM254400   2.057   8.928   6.934  2.3090  0.9204  0.3497
18557THY    HM354401   2.142   8.769   6.905 -1.6601 -0.4207 -1.4062
18557THY    CA654402   1.871   8.887   6.735 -0.2928  0.5167 -0.4038
18557THY    HA654403   1.825   8.957   6.805  0.7780 -2.1844  3.3412
18558THY      O54404   3.380   4.880   2.922  0.9725  0.1585  0.7202
18558THY     HO54405   3.413   4.950   2.863  0.7389 -2.3566 -1.1461
18558THY    CA154406   3.448   4.875   3.037 -0.1354 -0.0570  0.5819
18558THY    CA254407   3.384   4.839   3.151  0.6678  1.1063  0.2518
18558THY    CP154408   3.232   4.797   3.149  1.0995 -0.2118 -0.1458
18558THY    HP154409   3.184   4.805   3.051  1.2701 -0.2449  0.5257
18558THY    CP254410   3.153   4.881   3.253  0.5565  1.1579  0.3171
18558THY    HP254411   3.180   4.868   3.359  1.5926  0.7955 -0.5941
18558THY    HP354412   3.047   4.864   3.235  0.8753 -0.2504 -0.2977
18558THY    HP454413   3.174   4.989   3.246  0.1527  0.7155  0.3658
18558THY    CP354414   3.216   4.650   3.184 -0.0980  0.4725  0.1659
18558THY    HP554415   3.244   4.624   3.286 -3.0526  0.9754 -1.5666
18558THY    HP654416   3.269   4.592   3.108  0.6602  2.0765 -1.2944
18558THY    HP754417   3.112   4.616   3.172  0.0118  1.4108 -0.5394
18558THY    CA354418   3.459   4.831   3.272 -0.2332  0.5020 -0.8324
18558THY    HA354419   3.407   4.791   3.358  0.3288  2.4336  2.2541
18558THY    CA454420   3.594   4.870   3.269  0.2557  0.2739 -0.0378
18558THY    HA454421   3.648   4.870   3.362 -0.3251  0.6296 -0.8353
18558THY    CA554422   3.657   4.907   3.153  0.6787  0.0763  0.5732
18558THY    CM154423   3.800   4.950   3.150 -0.1211 -0.2375  0.5150
18558THY    HM154424   3.811   5.053   3.115  0.3163 -1.4381  0.0863
18558THY    HM254425   3.855   4.875   3.091  0.7223  0.5705  0.4907
18558THY    HM354426   3.830   4.944   3.255  0.1217 -0.3073  0.4832
18558THY    CA654427   3.588   4.908   3.034 -0.2371  0.0556 -0.0739
18558THY    HA654428   3.641   4.928   2.941  1.0059  1.1669  2.1285
18559THY      O54429   5.115   0.685   4.269  0.1004 -0.3056  0.3280
18559THY     HO54430   5.107   0.593   4.236  1.5072  0.8064 -0.2279
18559THY    CA154431   5.254   0.694   4.279  0.7652  0.3471 -1.2822
18559THY    CA254432   5.309   0.773   4.385  0.5647 -0.0753  0.0788
18559THY    CP154433   5.213   0.853   4.482 -0.9032  0.0956 -0.1024
18559THY    HP154434   5.150   0.907   4.410  0.1214 -1.3352 -0.7543
18559THY    CP254435   5.278   0.967   4.558 -0.4341  0.7793 -0.3065
18559THY    HP254436   5.342   0.936   4.641  0.0324  0.5793  0.1164
18559THY    HP354437   5.209   1.049   4.582  0.7617 -2.2566  1.7545
18559THY    HP454438   5.343   1.018   4.487 -0.3671  1.6278  0.8334
18559THY    CP354439   5.145   0.759   4.579 -0.6421  0.4832  0.1815
18559THY    HP554440   5.082   0.686   4.527 -0.3566 -0.6959  0.7496
18559THY    HP654441   5.077   0.821   4.640 -1.2686 -1.5961  1.6542
18559THY    HP754442   5.219   0.709   4.641 -0.1435 -0.6124 -0.4708
18559THY    CA354443   5.448   0.775   4.389 -0.4781 -0.1142 -0.8050
18559THY    HA354444   5.499   0.837   4.463  0.7968 -2.7881  1.5515
18559THY    CA454445   5.521   0.698   4.304 -0.9763  0.5086 -0.1030
18559THY    HA454446   5.629   0.694   4.310 -0.8635 -0.7940  0.4742
18559THY    CA554447   5.466   0.620   4.212 -0.0406  0.5978  0.2741
18559THY    CM154448   5.560   0.526   4.131  0.1640 -0.1286  0.6600
18559THY    HM154449   5.521   0.517   4.029 -0.8150  0.2089  0.9559
18559THY    HM254450   5.558   0.421   4.163 -0.5386  0.0101  0.7058
18559THY    HM354451   5.664   0.559   4.129 -0.5267 -2.8806  3.0926
18559THY    CA654452   5.327   0.621   4.192 -0.5409  0.2902 -0.4099
18559THY    HA654453   5.281   0.573   4.107 -1.6464  0.2367  0.6836
18560THY      O54454   5.886   4.857   4.737 -0.2152 -0.4214 -0.2209
18560THY     HO54455   5.913   4.792   4.803 -0.4302 -1.8139 -1.7842
18560THY    CA154456   6.009   4.894   4.690  0.0373  0.8461  0.1770
18560THY    CA254457   6.034   5.023   4.644 -0.1610 -0.1409 -0.2079
18560THY    CP154458   5.929   5.136   4.658 -0.4193 -0.8535  0.6740
18560THY    HP154459   5.839   5.095   4.707 -0.1280  1.1114  2.2374
18560THY    CP254460   5.875   5.169   4.524  0.5718  0.6149 -0.1059
18560THY    HP254461   5.874   5.083   4.456 -2.4669 -0.9313  0.9985
18560THY    HP354462   5.939   5.237   4.466 -0.4442 -0.0396  0.3131
18560THY    HP454463   5.777   5.218   4.529  0.7653 -2.3580  0.7830
18560THY    CP354464   5.979   5.261   4.721  0.3462 -0.0084 -0.3082
18560THY    HP554465   6.081   5.290   4.696  0.4741 -0.5420 -1.1872
18560THY    HP654466   5.971   5.240   4.829 -0.5949 -0.3442 -1.8638
18560THY    HP754467   5.906   5.342   4.717 -1.4158 -0.5290 -1.8473
18560THY    CA354468   6.158   5.051   4.579  0.3116  0.0313  0.2390
18560THY    HA354469   6.176   5.150   4.539 -1.2957 -0.8639  0.2033
18560THY    CA454470   6.259   4.960   4.591 -0.1934 -0.7131 -0.0236
18560THY    HA454471   6.360   4.982   4.556  0.5520 -0.3309 -2.5397
18560THY    CA554472   6.240   4.835   4.636  0.0761 -0.0720 -0.2925
18560THY    CM154473   6.352   4.735   4.637  0.1458 -0.4655  0.4984
18560THY    HM154474   6.404   4.727   4.541  1.6565  0.2712  0.9718
18560THY    HM254475   6.321   4.636   4.673 -0.5650 -1.1449  0.4729
18560THY    HM354476   6.424   4.769   4.712  2.0805 -2.3014  0.6562
18560THY    CA654477   6.110   4.802   4.684  0.2369 -0.8487  0.0629
18560THY    HA654478   6.085   4.703   4.721 -1.2995 -0.3658  0.5987
18561THY      O54479   9.269   4.096   5.293 -0.2392 -0.0110  0.2846
18561THY     HO54480   9.272   4.004   5.324  0.1556 -1.3507 -0.1795
18561THY    CA154481   9.141   4.133   5.285 -0.0834 -0.7109  0.0748
18561THY    CA254482   9.095   4.255   5.229  0.0293  0.5140  0.0322
18561THY    CP154483   9.203   4.349   5.181  0.7500  0.3184  0.1073
18561THY    HP154484   9.298   4.299   5.157  1.2484 -1.3956  1.7634
18561THY    CP254485   9.237   4.452   5.288  0.1720  0.0422  0.9264
18561THY    HP254486   9.143   4.484   5.335 -0.0976  1.2027 -1.3863
18561THY    HP354487   9.292   4.535   5.243 -0.5275  2.0000  2.5542
18561THY    HP454488   9.299   4.404   5.365  2.3615 -1.9596  0.4009
18561THY    CP354489   9.162   4.425   5.057 -0.1333  0.3019  0.3588
18561THY    HP554490   9.087   4.504   5.071 -0.2583  0.3410  0.2347
18561THY    HP654491   9.103   4.357   4.995 -0.9107  1.5618 -0.1615
18561THY    HP754492   9.245   4.456   4.993 -0.4640  1.1133  3.2173
18561THY    CA354493   8.956   4.271   5.200  0.1674 -0.3838 -0.1048
18561THY    HA354494   8.923   4.367   5.162 -0.5099 -0.7827 -0.4819
18561THY    CA454495   8.870   4.165   5.229  0.4274 -0.0177 -0.2973
18561THY    HA454496   8.763   4.183   5.217  0.1041  2.3412 -0.1964
18561THY    CA554497   8.917   4.054   5.301 -0.3233 -0.4795 -0.2806
18561THY    CM154498   8.813   3.945   5.342  0.3239 -0.4015 -0.2369
18561THY    HM154499   8.870   3.880   5.409 -1.5167  0.6062 -0.8818
18561THY    HM254500   8.774   3.896   5.252 -0.6597 -0.7807  1.1925
18561THY    HM354501   8.731   3.981   5.404 -1.1997 -2.0825 -0.6775
18561THY    CA654502   9.051   4.033   5.315  0.6614 -0.5035 -0.4907
18561THY    HA654503   9.082   3.937   5.354  0.5962 -2.5492 -1.3985
18562THY      O54504   3.959   7.886   2.592  0.0145 -0.5058 -0.3738
18562THY     HO54505   3.915   7.905   2.676 -0.5701 -0.5096 -1.6376
18562THY    CA154506   4.004   7.757   2.583  0.0918  0.0559  0.0134
18562THY    CA254507   4.037   7.711   2.453 -0.8978  0.0796 -0.4872
18562THY    CP154508   4.021   7.802   2.327  0.1385 -1.2809  0.4402
18562THY    HP154509   3.954   7.887   2.344  0.8138  0.6197  0.6206
18562THY    CP254510   3.964   7.728   2.202 -0.3689  0.7142  0.0353
18562THY    HP254511   3.869   7.675   2.216 -0.8018  1.4396  0.9926
18562THY    HP354512   4.034   7.654   2.160 -0.8104 -0.1509  0.0967
18562THY    HP454513   3.946   7.802   2.123 -1.0595  0.9950  0.1741
18562THY    CP354514   4.159   7.857   2.294  0.0199  0.5196  0.7109
18562THY    HP554515   4.224   7.770   2.273 -0.8658 -2.0823  0.5642
18562THY    HP654516   4.211   7.917   2.369 -0.2180  0.0422  1.5265
18562THY    HP754517   4.159   7.915   2.201 -1.1101  0.0338 -0.0246
18562THY    CA354518   4.116   7.585   2.447 -0.1520  0.6984 -0.5859
18562THY    HA354519   4.143   7.545   2.349  1.3697 -0.7390  3.4681
18562THY    CA454520   4.154   7.521   2.568 -0.2595  0.6152 -0.2551
18562THY    HA454521   4.208   7.427   2.561  0.4235 -1.4441  0.2284
18562THY    CA554522   4.117   7.574   2.694  0.4915  0.6846  0.1988
18562THY    CM154523   4.165   7.498   2.805 -1.4458  0.2131  0.0905
18562THY    HM154524   4.223   7.411   2.772 -0.0525  0.2996  0.9637
18562THY    HM254525   4.082   7.448   2.857 -0.7791  0.7958 -0.4270
18562THY    HM354526   4.223   7.565   2.869  0.7192 -1.1782 -0.3367
18562THY    CA654527   4.035   7.686   2.699  0.1480  0.1826  0.2229
18562THY    HA654528   4.005   7.729   2.794  1.1166 -0.1343  1.6932
18563THY      O54529   5.085   2.179   5.837  0.2014 -0.0525  0.3249
18563THY     HO54530   5.115   2.167   5.929  0.8026 -0.3264 -0.2850
18563THY    CA154531   5.045   2.307   5.820 -0.0513 -0.7142 -0.2231
18563THY    CA254532   4.999   2.351   5.696  1.1591 -0.6006 -0.9471
18563THY    CP154533   4.987   2.256   5.575 -0.6851 -0.1462  0.1493
18563THY    HP154534   5.083   2.204   5.586  0.2542  1.1897  2.0286
18563THY    CP254535   4.975   2.325   5.437 -0.3772  0.2282 -0.4784
18563THY    HP254536   4.881   2.381   5.434  1.2518  1.3235  2.5353
18563THY    HP354537   4.971   2.241   5.366  0.6131 -1.4743  0.8585
18563THY    HP454538   5.066   2.383   5.417 -0.0086 -0.7449 -1.3642
18563THY    CP354539   4.858   2.156   5.582 -0.4201  0.3669  0.1161
18563THY    HP554540   4.765   2.215   5.576  0.4075 -0.5631  1.3644
18563THY    HP654541   4.864   2.090   5.670 -4.4734  1.0200  0.3371
18563THY    HP754542   4.865   2.085   5.499 -1.2198  0.2445  0.1634
18563THY    CA354543   4.947   2.482   5.689 -0.3932  1.2883 -0.2096
18563THY    HA354544   4.895   2.527   5.605  0.4356  0.3308 -0.9922
18563THY    CA454545   4.969   2.566   5.792 -0.2064 -0.0137 -0.0466
18563THY    HA454546   4.922   2.663   5.788  0.5252  0.8413  0.3663
18563THY    CA554547   5.038   2.529   5.909  0.3166  0.2739  0.2704
18563THY    CM154548   5.049   2.639   6.019 -0.5351 -0.3328  0.8424
18563THY    HM154549   4.951   2.687   6.035  0.2122  0.2158  2.2467
18563THY    HM254550   5.130   2.712   6.009  0.0239  1.8558  0.5981
18563THY    HM354551   5.082   2.596   6.115  1.2538 -0.4446  1.8913
18563THY    CA654552   5.075   2.392   5.930 -0.0355  0.1361 -0.4162
18563THY    HA654553   5.124   2.363   6.023  0.1499 -0.2718 -1.4582
18564THY      O54554   8.739   4.492   7.426 -0.1880  0.3619  0.3939
18564THY     HO54555   8.696   4.528   7.506  0.2717  0.6192  0.3839
18564THY    CA154556   8.847   4.570   7.387 -0.3409  0.7540 -0.2668
18564THY    CA254557   8.978   4.527   7.412  0.2641  0.7666  0.3730
18564THY    CP154558   9.003   4.400   7.497 -0.0197  0.1329  0.9793
18564THY    HP154559   8.916   4.381   7.563 -0.5201  0.0889  2.9305
18564THY    CP254560   9.125   4.405   7.590  0.1070  0.2655  0.3574
18564THY    HP254561   9.157   4.309   7.633 -0.0942 -1.6247 -0.6139
18564THY    HP354562   9.108   4.478   7.670  3.5023  0.2620  1.3382
18564THY    HP454563   9.213   4.454   7.546 -0.0939  0.0511  0.5254
18564THY    CP354564   9.008   4.278   7.401 -0.6063 -0.2182 -0.9694
18564THY    HP554565   9.096   4.280   7.336 -1.2148 -1.0413  0.5563
18564THY    HP654566   8.926   4.286   7.329 -0.3347 -0.6833 -2.2027
18564THY    HP754567   9.002   4.180   7.450 -0.7885  3.1803  0.5962
18564THY    CA354568   9.081   4.583   7.339 -0.0218  0.3712 -0.0677
18564THY    HA354569   9.180   4.541   7.348 -0.4898  1.2438 -1.0419
18564THY    CA454570   9.049   4.692   7.252  0.0266 -0.0219  0.0232
18564THY    HA454571   9.129   4.733   7.191  0.2226  1.1315  1.4283
18564THY    CA554572   8.919   4.748   7.245  0.2824 -0.0110  1.1594
18564THY    CM154573   8.890   4.868   7.164  0.3828 -0.0297  0.7712
18564THY    HM154574   8.926   4.848   7.063  2.5101  1.1343 -1.8399
18564THY    HM254575   8.942   4.952   7.212 -1.0439  0.9622  1.1224
18564THY    HM354576   8.782   4.886   7.157  0.4977 -3.2727  0.8237
18564THY    CA654577   8.816   4.692   7.320  0.7764 -0.3389 -0.6549
18564THY    HA654578   8.716   4.732   7.314 -0.0530  2.1029 -2.1053
18565THY      O54579   1.251   3.741   7.414 -0.0449 -0.4179 -0.1577
18565THY     HO54580   1.253   3.780   7.503  1.3600 -0.3546 -0.3460
18565THY    CA154581   1.335   3.815   7.343  0.4697 -0.1830  0.1193
18565THY    CA254582   1.341   3.812   7.201 -0.7427  0.4929  0.2772
18565THY    CP154583   1.269   3.699   7.132  0.5949 -0.2309 -0.1683
18565THY    HP154584   1.245   3.619   7.204 -4.1640  0.2246  1.3061
18565THY    CP254585   1.349   3.637   7.018 -0.1305  1.0748 -0.8251
18565THY    HP254586   1.302   3.562   6.953 -0.4255  1.0300 -0.6027
18565THY    HP354587   1.436   3.589   7.064  0.4935  1.0863  0.2759
18565THY    HP454588   1.380   3.713   6.945 -1.2074  0.0820 -1.3007
18565THY    CP354589   1.135   3.750   7.078 -0.5795 -0.4319  0.0211
18565THY    HP554590   1.073   3.664   7.051 -1.8551  1.0309  0.4403
18565THY    HP654591   1.158   3.816   6.993  0.2058  0.4002  0.8594
18565THY    HP754592   1.073   3.807   7.149 -2.1855 -0.9463 -1.0069
18565THY    CA354593   1.426   3.900   7.133  0.2259  0.3985  0.1052
18565THY    HA354594   1.418   3.902   7.025  1.3440  0.3149  0.8441
18565THY    CA454595   1.494   4.000   7.203  0.7823 -0.7789 -0.1027
18565THY    HA454596   1.551   4.076   7.150  2.1931 -0.1726 -0.6985
18565THY    CA554597   1.483   4.010   7.345  0.3497 -0.0220 -0.2723
18565THY    CM154598   1.550   4.120   7.420 -0.0087  0.4051  0.2849
18565THY    HM154599   1.589   4.202   7.359  1.1826 -1.6160 -1.6868
18565THY    HM254600   1.634   4.083   7.481 -1.0746  0.8221 -1.5511
18565THY    HM354601   1.474   4.156   7.491  0.7474  3.5529 -3.6390
18565THY    CA654602   1.402   3.916   7.410  0.3972 -0.2404  0.1996
18565THY    HA654603   1.403   3.924   7.519  1.7179 -0.1792 -0.4509
18566THY      O54604   1.643   2.589   5.478  0.0090  0.1303 -0.3157
18566THY     HO54605   1.621   2.627   5.392 -2.3148  0.9493  0.3401
18566THY    CA154606   1.763   2.514   5.460  0.2170  0.2594  0.1795
18566THY    CA254607   1.840   2.474   5.572 -0.0483  0.0494  0.0850
18566THY    CP154608   1.795   2.514   5.714 -0.5470 -0.2655 -0.1408
18566THY    HP154609   1.688   2.537   5.712 -0.3623 -0.4543  0.7280
18566THY    CP254610   1.874   2.629   5.773 -0.2218  0.3904  0.7802
18566THY    HP254611   1.862   2.714   5.705  2.8528 -0.9851  0.2388
18566THY    HP354612   1.977   2.591   5.782 -0.7227 -0.4020 -0.8249
18566THY    HP454613   1.831   2.644   5.873 -3.2387 -0.7436  0.3713
18566THY    CP354614   1.814   2.398   5.804  0.5162 -0.1727 -0.0541
18566THY    HP554615   1.763   2.314   5.756 -0.9449 -0.3101  0.8802
18566THY    HP654616   1.760   2.419   5.897  0.2943 -0.1757 -0.5819
18566THY    HP754617   1.919   2.376   5.828  0.5092  2.3313  2.1054
18566THY    CA354618   1.960   2.410   5.540  0.4332  0.5876  0.0118
18566THY    HA354619   2.035   2.376   5.611  2.3405 -1.0241  0.6012
18566THY    CA454620   1.997   2.370   5.411  0.2273  0.0945  0.1738
18566THY    HA454621   2.089   2.316   5.390  0.2503 -3.0217  1.2399
18566THY    CA554622   1.914   2.409   5.304  0.2022 -0.5773  0.0764
18566THY    CM154623   1.929   2.363   5.165 -0.0545  0.5953  0.5767
18566THY    HM154624   2.013   2.292   5.159 -0.2484  0.2027  0.3787
18566THY    HM254625   1.949   2.446   5.097 -0.8342 -0.8943 -0.4122
18566THY    HM354626   1.842   2.310   5.125 -0.1316  0.5917  0.7078
18566THY    CA654627   1.800   2.484   5.331 -0.1486 -0.3771  0.6988
18566THY    HA654628   1.739   2.500   5.243  1.0025 -1.2537  0.4186
18567THY      O54629   3.146   1.450   4.806  0.0239 -0.5131 -0.3719
18567THY     HO54630   3.228   1.410   4.840  0.6464 -1.0696  0.4025
18567THY    CA154631   3.063   1.465   4.906 -0.2332 -0.4608 -0.6671
18567THY    CA254632   2.930   1.483   4.887  0.7243  0.1427  0.0822
18567THY    CP154633   2.881   1.521   4.744  0.1497  0.6190 -0.2049
18567THY    HP154634   2.965   1.559   4.684 -2.0095 -3.6339 -1.4974
18567THY    CP254635   2.778   1.633   4.744 -0.0577 -0.1559 -0.7108
18567THY    HP254636   2.783   1.677   4.644  0.3240 -0.1523 -0.7435
18567THY    HP354637   2.800   1.709   4.820  0.4902 -0.2302 -0.7918
18567THY    HP454638   2.675   1.600   4.760  0.3874  1.8930 -1.2809
18567THY    CP354639   2.826   1.404   4.664 -0.2490 -0.2538  0.2189
18567THY    HP554640   2.739   1.372   4.721  0.0580  0.4970  0.7006
18567THY    HP654641   2.901   1.324   4.664 -0.7159 -0.5797 -0.2278
18567THY    HP754642   2.802   1.419   4.557  1.2989 -0.5506  0.7525
18567THY    CA354643   2.838   1.478   5.001 -0.3493  0.7770 -0.3057
18567THY    HA354644   2.731   1.485   4.985 -0.1359 -0.7282 -0.0541
18567THY    CA454645   2.893   1.447   5.126  0.7529  0.3667  0.3149
18567THY    HA454646   2.839   1.439   5.220  0.5058  0.2798  0.9513
18567THY    CA554647   3.033   1.440   5.139 -0.7262 -0.2828  0.3019
18567THY    CM154648   3.083   1.429   5.274  0.0536 -0.0421  0.1708
18567THY    HM154649   3.054   1.507   5.345 -0.0830  1.3396 -1.1108
18567THY    HM254650   3.192   1.433   5.278  0.0461  0.0780  0.2424
18567THY    HM354651   3.041   1.332   5.305  0.2254  0.9793  0.4131
18567THY    CA654652   3.118   1.452   5.026 -0.2875  0.2763  0.6760
18567THY    HA654653   3.226   1.453   5.024 -0.2910 -1.7582  0.8506
18568THY      O54654   1.939   7.392   2.506  0.1273  0.2531 -0.0875
18568THY     HO54655   1.906   7.456   2.571 -3.1822 -2.2537  1.0356
18568THY    CA154656   1.921   7.265   2.548 -0.0262  0.1301  0.5691
18568THY    CA254657   1.988   7.156   2.491  0.2653  0.0189  0.3252
18568THY    CP154658   2.097   7.179   2.377  0.8213 -0.6657  0.3878
18568THY    HP154659   2.061   7.261   2.314 -2.0460 -0.6888 -0.7472
18568THY    CP254660   2.111   7.059   2.287  0.5195 -0.4513 -0.2485
18568THY    HP254661   2.019   7.044   2.230 -0.8917  1.3812  1.1270
18568THY    HP354662   2.124   6.967   2.346 -1.0366  0.9438  0.3883
18568THY    HP454663   2.183   7.075   2.205 -0.3717 -1.4970 -1.3414
18568THY    CP354664   2.232   7.209   2.444 -0.2652  0.1355  0.0864
18568THY    HP554665   2.242   7.142   2.530 -1.7098  0.5518  0.3705
18568THY    HP654666   2.226   7.310   2.487 -2.6215 -0.1831  0.1480
18568THY    HP754667   2.317   7.211   2.375 -0.6916 -0.4344  2.7966
18568THY    CA354668   1.955   7.023   2.537 -0.2767  0.2761  0.1026
18568THY    HA354669   2.011   6.936   2.505  0.0997 -0.7817  0.7174
18568THY    CA454670   1.867   7.012   2.646 -0.3852 -0.1947 -0.5733
18568THY    HA454671   1.853   6.914   2.691  0.0580  1.8474  0.2694
18568THY    CA554672   1.812   7.123   2.705 -0.1022 -0.1858 -0.0500
18568THY    CM154673   1.752   7.118   2.844 -0.3027 -0.0353 -0.3970
18568THY    HM154674   1.772   7.208   2.904  2.3092 -1.9739  0.4499
18568THY    HM254675   1.779   7.028   2.900 -0.0515  1.1842  0.4185
18568THY    HM354676   1.643   7.123   2.839 -0.1941 -1.7703  1.9063
18568THY    CA654677   1.835   7.248   2.653  0.2414 -0.0086 -0.0504
18568THY    HA654678   1.804   7.337   2.708  0.5704 -0.5619  0.4069
18569THY      O54679   3.756   2.565   7.193  0.4308  0.1380 -0.2873
18569THY     HO54680   3.737   2.660   7.196 -1.1917  0.2960 -0.5871
18569THY    CA154681   3.727   2.519   7.319  0.0485  0.7120  0.3835
18569THY    CA254682   3.715   2.384   7.345 -0.6921 -1.0187  0.4076
18569THY    CP154683   3.739   2.279   7.239  0.2371 -0.0100  0.3011
18569THY    HP154684   3.769   2.325   7.145  0.6064 -0.2906 -0.4960
18569THY    CP254685   3.613   2.205   7.194  0.2035 -0.3134  0.2814
18569THY    HP254686   3.566   2.158   7.281 -1.0670 -1.2017 -0.1277
18569THY    HP354687   3.636   2.130   7.117  1.2515 -0.4178  0.6859
18569THY    HP454688   3.544   2.281   7.157 -0.0722 -0.8817 -0.2452
18569THY    CP354689   3.849   2.179   7.269 -0.5369 -0.1570  0.5131
18569THY    HP554690   3.949   2.223   7.278 -0.1854  0.8993 -0.4344
18569THY    HP654691   3.861   2.112   7.183 -0.6168  0.2706 -0.0661
18569THY    HP754692   3.837   2.114   7.357 -0.1288  1.7848  2.8952
18569THY    CA354693   3.673   2.343   7.477 -0.0405  0.0242  0.1108
18569THY    HA354694   3.655   2.237   7.497  0.6723  0.9305  0.1522
18569THY    CA454695   3.649   2.436   7.576 -0.1442  0.6633  0.3862
18569THY    HA454696   3.612   2.400   7.672  1.2466  0.1218 -2.7519
18569THY    CA554697   3.669   2.571   7.550 -0.2681 -0.1332  0.7118
18569THY    CM154698   3.645   2.674   7.654  0.2726 -0.0065  0.2488
18569THY    HM154699   3.737   2.718   7.694 -0.1233 -0.9172  1.9738
18569THY    HM254700   3.599   2.632   7.745  1.2911  1.4585  2.1578
18569THY    HM354701   3.580   2.757   7.624 -1.3910 -1.6451 -1.5429
18569THY    CA654702   3.705   2.612   7.420  0.5972  0.1093  0.7379
18569THY    HA654703   3.712   2.720   7.404  1.3681 -1.4086  0.4904
18570THY      O54704   2.833   0.836   2.442  0.3206  0.2839  0.6750
18570THY     HO54705   2.767   0.785   2.493  1.1175  0.6291 -0.0218
18570THY    CA154706   2.766   0.920   2.360 -0.0276 -0.4675  0.7376
18570THY    CA254707   2.829   1.024   2.296 -0.5765 -0.2024  0.4687
18570THY    CP154708   2.979   1.055   2.302 -0.0697  0.1181  0.4211
18570THY    HP154709   3.036   0.976   2.352  3.3984 -2.7650  0.8082
18570THY    CP254710   3.007   1.200   2.350  0.4570  0.2400  0.6649
18570THY    HP254711   3.112   1.221   2.372  0.5054 -1.8993  3.2961
18570THY    HP354712   2.955   1.217   2.446 -1.8898 -1.0349  1.1681
18570THY    HP454713   2.970   1.277   2.281  0.3168  0.8415  1.1441
18570THY    CP354714   3.038   1.034   2.165 -0.3865  0.7508  0.4266
18570THY    HP554715   2.999   1.102   2.089  0.7465 -0.2455  0.0064
18570THY    HP654716   3.017   0.930   2.135  2.5049  0.9214 -0.2967
18570THY    HP754717   3.147   1.044   2.166 -0.2384 -0.7490 -0.7393
18570THY    CA354718   2.752   1.103   2.209 -0.1339 -0.0727 -0.4523
18570THY    HA354719   2.794   1.181   2.146 -3.4468 -0.0183  1.5760
18570THY    CA454720   2.616   1.069   2.190  0.6453 -0.7230 -0.0865
18570THY    HA454721   2.551   1.120   2.119  1.3404 -2.7975 -1.9150
18570THY    CA554722   2.555   0.962   2.258  0.4348  0.1311 -0.1781
18570THY    CM154723   2.401   0.936   2.234  0.2050 -0.0176  0.5499
18570THY    HM154724   2.381   0.868   2.150  0.3511  0.6947 -0.4027
18570THY    HM254725   2.345   1.025   2.204  0.5956 -0.8747  0.5185
18570THY    HM354726   2.345   0.894   2.319  1.1065  0.2403 -0.1639
18570THY    CA654727   2.636   0.881   2.340  0.0943  0.4090 -0.2156
18570THY    HA654728   2.591   0.792   2.385 -1.7513  2.0377  1.4472
18571THY      O54729   7.381   3.005   5.216 -0.1314 -0.2801 -0.3163
18571THY     HO54730   7.385   3.102   5.205 -1.3424 -1.0443 -0.3275
18571THY    CA154731   7.477   2.956   5.130  0.4066 -0.4122  0.1186
18571THY    CA254732   7.459   2.820   5.085  0.3610 -0.2387 -0.2090
18571THY    CP154733   7.329   2.747   5.099  0.7004 -0.0311  0.7535
18571THY    HP154734   7.251   2.817   5.131  0.5349  0.2209  0.4510
18571THY    CP254735   7.353   2.626   5.199  0.0740 -0.2071 -0.3438
18571THY    HP254736   7.439   2.564   5.173  0.4540  3.0881 -1.3734
18571THY    HP354737   7.270   2.554   5.197  0.6777  1.3491 -1.1357
18571THY    HP454738   7.377   2.652   5.303  1.8239 -0.8040  0.5587
18571THY    CP354739   7.279   2.685   4.965  0.4430  0.3409  0.0193
18571THY    HP554740   7.354   2.625   4.912 -0.4372 -2.4234  1.2266
18571THY    HP654741   7.242   2.771   4.909 -1.1994  1.5011  0.1190
18571THY    HP754742   7.188   2.626   4.982 -1.2988 -4.2364  1.0358
18571THY    CA354743   7.568   2.763   5.015  0.0812 -0.1416  0.5916
18571THY    HA354744   7.566   2.663   4.974  0.0814  0.6659  0.2554
18571THY    CA454745   7.680   2.840   4.991 -0.5168 -0.1752 -0.7366
18571THY    HA454746   7.762   2.782   4.949  0.4198 -0.9732  1.1024
18571THY    CA554747   7.689   2.977   5.024  0.4451  0.2109  0.0123
18571THY    CM154748   7.813   3.051   4.991 -0.8389  0.1793 -0.6208
18571THY    HM154749   7.908   3.015   5.032 -0.7168 -1.1108 -1.8274
18571THY    HM254750   7.806   3.156   5.021 -0.7547 -0.9352 -0.2867
18571THY    HM354751   7.827   3.066   4.884  0.0509  0.1029 -1.9105
18571THY    CA654752   7.584   3.032   5.097  0.6550 -0.3215 -0.4290
18571THY    HA654753   7.591   3.136   5.125 -0.2931  0.0471 -0.4578
18572THY      O54754   3.735   8.815   7.455 -0.0903 -0.3806  0.0632
18572THY     HO54755   3.821   8.776   7.433 -0.4573 -0.4804 -0.7078
18572THY    CA154756   3.745   8.819   7.596 -0.0330 -0.0960 -0.1281
18572THY    CA254757   3.635   8.862   7.676  1.0773  0.3772  0.6447
18572THY    CP154758   3.497   8.900   7.612 -1.0374  0.1593 -0.7398
18572THY    HP154759   3.515   8.912   7.504 -1.1588  0.2217  0.0202
18572THY    CP254760   3.446   9.041   7.659 -0.3145  0.2787 -0.6361
18572THY    HP254761   3.520   9.121   7.649  0.5647 -1.5169 -1.6102
18572THY    HP354762   3.405   9.031   7.760  0.1830  0.6834  1.1120
18572THY    HP454763   3.363   9.068   7.592  0.7971  0.2533  3.2778
18572THY    CP354764   3.390   8.777   7.626 -0.3187 -0.5231 -0.4123
18572THY    HP554765   3.426   8.682   7.585 -2.5046 -1.0454 -1.0634
18572THY    HP654766   3.298   8.811   7.578 -0.2196 -0.9304 -0.7047
18572THY    HP754767   3.370   8.775   7.733 -0.2250 -0.4562  1.1511
18572THY    CA354768   3.648   8.864   7.814 -0.1280  0.5693  0.8927
18572THY    HA354769   3.568   8.898   7.879 -0.6068  0.4794 -0.0447
18572THY    CA454770   3.769   8.836   7.870  0.0990 -0.1501 -0.0768
18572THY    HA454771   3.782   8.849   7.977 -0.7965 -0.2076  1.5991
18572THY    CA554772   3.886   8.800   7.797 -0.1455  0.3651 -0.0394
18572THY    CM154773   4.013   8.766   7.871 -0.2454 -0.4971 -0.6820
18572THY    HM154774   4.003   8.661   7.901 -0.2442 -2.2576 -1.2214
18572THY    HM254775   4.034   8.827   7.960  0.1558 -2.4091  2.1753
18572THY    HM354776   4.095   8.782   7.800  0.5782  0.7413  0.9145
18572THY    CA654777   3.874   8.791   7.655 -0.3538 -0.6560 -0.3151
18572THY    HA654778   3.959   8.752   7.600  0.4378 -0.0253  0.4943
18573THY      O54779   5.536   4.978   2.959  0.5399  0.0950 -0.5137
18573THY     HO54780   5.489   5.062   2.971  0.7589  1.4550 -0.5589
18573THY    CA154781   5.508   4.942   2.833 -0.1958  0.2259 -0.0910
18573THY    CA254782   5.545   4.824   2.772 -0.5759  0.0535 -0.5123
18573THY    CP154783   5.634   4.722   2.849  0.3917 -0.1670 -0.1533
18573THY    HP154784   5.678   4.743   2.947 -0.5155 -0.2005  2.2116
18573THY    CP254785   5.764   4.708   2.769  0.0413  0.0634 -0.8759
18573THY    HP254786   5.833   4.640   2.820 -0.0924  2.2563  0.5263
18573THY    HP354787   5.809   4.807   2.766 -1.1006 -2.7193 -0.3520
18573THY    HP454788   5.732   4.682   2.667  3.5419 -0.8149 -2.2383
18573THY    CP354789   5.563   4.579   2.864 -0.1020  0.0928 -0.8848
18573THY    HP554790   5.463   4.592   2.907  0.6113  1.6178 -0.1773
18573THY    HP654791   5.606   4.507   2.935 -2.0696  1.4369 -0.8279
18573THY    HP754792   5.558   4.524   2.769 -0.7069 -0.5957  0.3292
18573THY    CA354793   5.514   4.798   2.636 -0.1326 -0.7372  0.1816
18573THY    HA354794   5.547   4.712   2.578  0.7340 -3.3834  2.1849
18573THY    CA454795   5.436   4.890   2.563  0.1191  0.1273 -0.2119
18573THY    HA454796   5.394   4.880   2.463  0.6113 -0.2142  0.9733
18573THY    CA554797   5.399   5.008   2.625 -0.2378 -0.6559 -0.0819
18573THY    CM154798   5.309   5.100   2.554  0.9037  0.0498 -0.4688
18573THY    HM154799   5.218   5.045   2.526 -0.0258 -1.2449  1.5961
18573THY    HM254800   5.351   5.135   2.459  1.7792  0.3859 -0.5798
18573THY    HM354801   5.284   5.190   2.612  2.6514 -0.2767  0.2580
18573THY    CA654802   5.439   5.039   2.759  0.4667  0.5996 -0.2296
18573THY    HA654803   5.391   5.122   2.809 -1.4757  0.8981 -1.4691
18574THY      O54804   1.479   5.734   2.428  0.1227  0.1961  0.0693
18574THY     HO54805   1.393   5.688   2.428 -0.2651  0.0368  0.7872
18574THY    CA154806   1.503   5.781   2.305 -0.4386 -0.3050 -0.6615
18574THY    CA254807   1.565   5.912   2.287 -0.3403 -0.2441  0.4480
18574THY    CP154808   1.616   5.990   2.406  0.7483 -0.9560 -0.1465
18574THY    HP154809   1.625   5.923   2.493 -2.4285 -0.5552 -0.1889
18574THY    CP254810   1.535   6.113   2.450  0.2505  0.0224 -0.5024
18574THY    HP254811   1.451   6.080   2.511  1.2111  0.7578 -1.6782
18574THY    HP354812   1.505   6.164   2.358 -0.5918  0.8678  0.5772
18574THY    HP454813   1.593   6.183   2.512 -1.9176  0.5418  0.9248
18574THY    CP354814   1.761   6.032   2.371 -0.1249  0.3461 -0.4265
18574THY    HP554815   1.762   6.122   2.309  1.3099 -1.4020 -1.5783
18574THY    HP654816   1.808   5.951   2.314 -0.9339  1.1744 -1.5121
18574THY    HP754817   1.823   6.052   2.459  0.2026 -0.0963  0.6104
18574THY    CA354818   1.577   5.961   2.159  0.1564 -0.0137  0.0920
18574THY    HA354819   1.611   6.063   2.144 -2.4527 -0.7969  0.9333
18574THY    CA454820   1.542   5.880   2.051  0.2602 -0.6021 -0.1980
18574THY    HA454821   1.554   5.926   1.953  4.3505  0.1339  0.7602
18574THY    CA554822   1.494   5.746   2.072  0.1982  0.4922 -0.3384
18574THY    CM154823   1.450   5.668   1.956  0.5268 -0.0946  0.0114
18574THY    HM154824   1.413   5.568   1.979 -2.1328 -2.3381  0.3462
18574THY    HM254825   1.532   5.668   1.884  2.7987  2.2818  2.7578
18574THY    HM354826   1.364   5.712   1.904  1.2018 -0.1341  1.3387
18574THY    CA654827   1.475   5.699   2.202 -0.5186  1.0960 -0.4048
18574THY    HA654828   1.442   5.597   2.220 -0.3991  0.3672 -0.5770
18575THY      O54829   6.204   3.344   6.879  0.6865 -0.3165  0.0475
18575THY     HO54830   6.224   3.300   6.795 -0.4489 -0.6117  0.0767
18575THY    CA154831   6.098   3.432   6.860  0.1945 -0.2142  0.1972
18575THY    CA254832   6.020   3.482   6.965  0.4037  0.0114 -0.2476
18575THY    CP154833   6.032   3.427   7.103  0.1203 -0.5030 -0.5801
18575THY    HP154834   6.139   3.406   7.113  0.0041 -0.0804 -0.9994
18575THY    CP254835   5.964   3.297   7.128 -0.1414  0.3378 -0.1806
18575THY    HP254836   5.856   3.294   7.107  0.1841 -1.5122 -0.4138
18575THY    HP354837   5.981   3.280   7.235 -0.8498  0.4236 -0.4141
18575THY    HP454838   6.018   3.214   7.082  0.4180 -0.3208  0.5348
18575THY    CP354839   6.011   3.536   7.214 -0.3383  0.8026 -0.0346
18575THY    HP554840   5.902   3.543   7.221 -0.3916  0.5340 -0.5372
18575THY    HP654841   6.057   3.628   7.175  1.1605  2.3533 -0.0720
18575THY    HP754842   6.051   3.501   7.310  2.4324 -0.3198 -0.2505
18575THY    CA354843   5.907   3.560   6.944  0.1046  0.3502  0.4597
18575THY    HA354844   5.839   3.603   7.017 -0.5857  0.0352 -0.0760
18575THY    CA454845   5.893   3.598   6.809  0.2737 -0.0568 -0.1135
18575THY    HA454846   5.810   3.660   6.777  0.6100 -0.1106  0.3149
18575THY    CA554847   5.974   3.560   6.703  0.1421 -0.4813 -0.4941
18575THY    CM154848   5.954   3.617   6.570 -0.3102 -0.3784  0.1257
18575THY    HM154849   5.960   3.727   6.566  0.2066  0.7699  0.1538
18575THY    HM254850   5.855   3.589   6.533  0.2484 -2.0418  0.2600
18575THY    HM354851   6.029   3.578   6.501 -0.3810  0.3984 -1.4834
18575THY    CA654852   6.075   3.471   6.730  0.3363  0.8132 -0.1630
18575THY    HA654853   6.153   3.443   6.660  2.0415  1.2890  2.8822
18576THY      O54854   2.062   7.726   5.817  0.2454  0.4711  0.2805
18576THY     HO54855   2.027   7.805   5.861  2.1203  0.0321  1.4096
18576THY    CA154856   2.072   7.629   5.915 -0.0092  0.4601 -0.9700
18576THY    CA254857   2.111   7.497   5.890  0.6626 -0.2019 -0.1095
18576THY    CP154858   2.109   7.440   5.755  0.6177  0.2248  0.0789
18576THY    HP154859   2.080   7.521   5.686 -1.8330  1.8921  0.7614
18576THY    CP254860   1.995   7.340   5.746 -0.2754 -0.3345  0.0332
18576THY    HP254861   1.904   7.391   5.779 -0.1744  1.0819 -0.6415
18576THY    HP354862   2.026   7.264   5.819 -1.5005 -0.1626 -0.3290
18576THY    HP454863   1.984   7.279   5.656 -1.3785  1.8599 -3.2879
18576THY    CP354864   2.242   7.365   5.719  0.3870 -0.2162  0.3355
18576THY    HP554865   2.317   7.432   5.761  0.5649 -0.0268  0.0182
18576THY    HP654866   2.249   7.343   5.612 -0.7053 -0.2020 -0.2098
18576THY    HP754867   2.249   7.269   5.771 -0.5540 -1.9560 -0.7317
18576THY    CA354868   2.138   7.410   5.999 -0.6988 -0.6813  0.3663
18576THY    HA354869   2.158   7.304   5.988 -1.0215  0.9125  0.1215
18576THY    CA454870   2.127   7.455   6.128 -0.1675  0.0386  0.1194
18576THY    HA454871   2.148   7.382   6.205  1.0032 -0.3692  0.0018
18576THY    CA554872   2.079   7.592   6.153 -0.8248  0.0402  0.3677
18576THY    CM154873   2.076   7.640   6.298  0.2655  0.5120  0.7922
18576THY    HM154874   2.078   7.750   6.297 -1.9102 -2.7535  0.9525
18576THY    HM254875   2.162   7.601   6.354  0.3620 -1.2268 -1.7196
18576THY    HM354876   1.984   7.609   6.348  0.1286  1.0182  1.9724
18576THY    CA654877   2.047   7.676   6.049  0.2115  0.3937  0.3021
18576THY    HA654878   2.017   7.779   6.068  2.3007  0.4278  0.9672
18577THY      O54879   7.512   3.945   4.015  0.2610 -0.2085  0.1323
18577THY     HO54880   7.449   3.954   3.942 -2.2886  1.5959 -1.4437
18577THY    CA154881   7.620   4.016   3.981  0.2384  0.3543 -0.0678
18577THY    CA254882   7.728   4.039   4.069  0.3168 -0.2457  0.9476
18577THY    CP154883   7.741   3.970   4.199 -0.2006 -1.1954 -0.0427
18577THY    HP154884   7.670   3.893   4.232 -2.1006  0.5232  2.2723
18577THY    CP254885   7.716   4.069   4.316 -0.1081  0.0471 -0.1659
18577THY    HP254886   7.788   4.152   4.325  0.0926  2.0675 -0.5102
18577THY    HP354887   7.723   4.027   4.417  1.8504  0.2878  0.6181
18577THY    HP454888   7.615   4.106   4.296  0.5997 -0.7447  1.4467
18577THY    CP354889   7.884   3.909   4.233  0.1537  0.2394  0.1203
18577THY    HP554890   7.908   3.830   4.162 -0.9956 -0.3229  0.2555
18577THY    HP654891   7.878   3.869   4.335  0.0411 -0.0458 -0.6051
18577THY    HP754892   7.965   3.983   4.231 -0.3041  0.7184  0.6466
18577THY    CA354893   7.827   4.126   4.024 -0.0412  0.4607  0.2226
18577THY    HA354894   7.912   4.154   4.086  0.0512  0.4728 -0.0879
18577THY    CA454895   7.821   4.190   3.897 -0.2240 -0.4451  0.1102
18577THY    HA454896   7.899   4.257   3.861 -0.0326  0.5460  0.4309
18577THY    CA554897   7.720   4.157   3.815 -0.0671 -0.3880 -0.2211
18577THY    CM154898   7.718   4.210   3.673  0.2369 -0.4685  0.0948
18577THY    HM154899   7.761   4.311   3.670 -1.2185  1.2190  0.8194
18577THY    HM254900   7.614   4.221   3.641 -0.3610  0.5275 -2.2384
18577THY    HM354901   7.777   4.148   3.604  1.5115  0.1945  0.5215
18577THY    CA654902   7.617   4.075   3.852  0.2343 -0.4561 -0.8835
18577THY    HA654903   7.538   4.052   3.781  0.3752 -0.1542 -2.3789
18578THY      O54904   4.084   1.537   7.618  0.3135  0.1334 -0.8632
18578THY     HO54905   4.160   1.595   7.603  0.9150  1.9532 -1.1220
18578THY    CA154906   4.136   1.432   7.697 -0.4753  0.4492  0.6965
18578THY    CA254907   4.052   1.343   7.776  0.7693 -0.1500  0.1425
18578THY    CP154908   3.896   1.356   7.770  0.0074  0.5041  0.0938
18578THY    HP154909   3.865   1.454   7.729  0.2058  0.5676  0.1833
18578THY    CP254910   3.835   1.325   7.905 -0.1687 -0.0202 -1.1021
18578THY    HP254911   3.828   1.217   7.922 -0.3208 -0.6783 -1.1969
18578THY    HP354912   3.734   1.366   7.920 -0.0781 -2.0470  0.0309
18578THY    HP454913   3.897   1.373   7.982 -0.8697 -0.0470 -0.1213
18578THY    CP354914   3.829   1.269   7.666 -0.1696 -0.3080 -0.2302
18578THY    HP554915   3.824   1.165   7.701 -2.0437 -0.3160 -0.1696
18578THY    HP654916   3.890   1.276   7.575  0.6290  0.0647 -1.7748
18578THY    HP754917   3.729   1.306   7.641  0.1503 -1.3151 -0.0217
18578THY    CA354918   4.108   1.232   7.841 -0.6290 -0.2114  0.4608
18578THY    HA354919   4.042   1.159   7.886  1.0910  0.2872 -0.8427
18578THY    CA454920   4.249   1.224   7.841  0.2822  0.1309  0.4397
18578THY    HA454921   4.294   1.149   7.906 -0.0164 -0.0830  0.0675
18578THY    CA554922   4.327   1.315   7.772  0.6325  0.0055 -0.0406
18578THY    CM154923   4.475   1.313   7.787  0.4272  0.5183  0.5250
18578THY    HM154924   4.532   1.307   7.694 -0.8760 -0.2365 -0.5288
18578THY    HM254925   4.506   1.224   7.844  2.0335  0.5274  1.0490
18578THY    HM354926   4.514   1.399   7.843 -1.2751  2.8695 -0.1255
18578THY    CA654927   4.275   1.419   7.700  0.0936 -0.0859 -0.3829
18578THY    HA654928   4.343   1.484   7.646  1.5508  1.2238 -0.7547
18579THY      O54929   7.416   4.069   3.332  0.5895 -0.4096 -0.3496
18579THY     HO54930   7.489   4.133   3.336  0.2407  0.0647  0.0247
18579THY    CA154931   7.461   3.951   3.374  0.3825 -0.0434 -0.0490
18579THY    CA254932   7.421   3.834   3.310 -0.2185  0.7695 -0.5969
18579THY    CP154933   7.309   3.832   3.206 -0.1084 -1.3025 -0.1861
18579THY    HP154934   7.294   3.934   3.171  1.1514  1.7990  1.1898
18579THY    CP254935   7.174   3.799   3.277 -0.3423 -0.2344 -0.0343
18579THY    HP254936   7.189   3.701   3.324 -1.2320  0.4179  0.1276
18579THY    HP354937   7.102   3.792   3.194 -0.8111 -0.0328  1.9530
18579THY    HP454938   7.144   3.877   3.348  3.0078  0.2961  0.9324
18579THY    CP354939   7.336   3.748   3.085  0.5233 -0.6025  0.5598
18579THY    HP554940   7.442   3.720   3.077  0.7389  1.1236  0.7798
18579THY    HP654941   7.294   3.789   2.992 -3.9170  1.1804  0.5837
18579THY    HP754942   7.293   3.648   3.101  3.5080 -0.2921 -0.7720
18579THY    CA354943   7.481   3.705   3.345 -0.2796  0.4028 -0.1411
18579THY    HA354944   7.449   3.611   3.300 -0.3443 -0.4794  0.2987
18579THY    CA454945   7.579   3.705   3.442  0.0107  0.3336 -0.0554
18579THY    HA454946   7.628   3.616   3.481  0.9776 -0.3019  0.1817
18579THY    CA554947   7.621   3.820   3.508  0.1802 -0.5924 -0.4833
18579THY    CM154948   7.744   3.809   3.597 -0.1323  0.5439 -0.3094
18579THY    HM154949   7.798   3.904   3.590 -1.8413  1.1439  0.7537
18579THY    HM254950   7.807   3.723   3.572 -1.3390  4.0377 -2.3923
18579THY    HM354951   7.719   3.824   3.703 -0.8370  0.0278  3.0557
18579THY    CA654952   7.556   3.947   3.474  0.2396 -0.6691 -0.1059
18579THY    HA654953   7.608   4.037   3.505 -1.5427 -1.5843  1.2967
18580THY      O54954   5.920   7.750   6.513  0.1264 -0.1282 -0.2396
18580THY     HO54955   5.826   7.725   6.515  0.6439  0.8600 -2.2658
18580THY    CA154956   5.949   7.792   6.384  0.1973 -0.5022  0.5268
18580THY    CA254957   6.077   7.807   6.336  0.0735  0.1802 -0.5097
18580THY    CP154958   6.190   7.778   6.434  0.5007  0.3027 -0.0291
18580THY    HP154959   6.165   7.740   6.533 -0.3302  0.0607 -0.1170
18580THY    CP254960   6.257   7.921   6.457  0.0655 -0.1342  0.7945
18580THY    HP254961   6.295   7.967   6.366  1.4827  0.1740  0.3021
18580THY    HP354962   6.337   7.906   6.530 -1.8102  1.8581 -0.1788
18580THY    HP454963   6.188   7.985   6.513 -1.0593 -0.0002 -0.4844
18580THY    CP354964   6.290   7.671   6.381 -0.2730 -0.1929 -0.5339
18580THY    HP554965   6.372   7.665   6.454  0.7599 -1.2970 -0.2711
18580THY    HP654966   6.342   7.712   6.293  0.2915  1.5227  2.7636
18580THY    HP754967   6.251   7.570   6.366 -1.8408 -1.4178  0.2222
18580THY    CA354968   6.101   7.852   6.207  0.3940  0.2069  0.1616
18580THY    HA354969   6.201   7.863   6.167  0.0676 -0.7302 -0.1916
18580THY    CA454970   5.990   7.890   6.122 -0.0159 -0.8602  0.5810
18580THY    HA454971   6.004   7.922   6.019  1.7009 -1.0402 -0.6083
18580THY    CA554972   5.865   7.881   6.170 -0.1596 -0.6051  0.4008
18580THY    CM154973   5.747   7.914   6.077 -0.0856 -0.5177 -0.1420
18580THY    HM154974   5.753   8.017   6.042  4.0160 -0.2662 -0.1128
18580THY    HM254975   5.653   7.913   6.132 -0.7293 -1.4298  2.5950
18580THY    HM354976   5.726   7.845   5.994 -0.1576 -0.3097 -0.3732
18580THY    CA654977   5.845   7.830   6.302  0.5419 -0.0780  0.4690
18580THY    HA654978   5.744   7.821   6.340  0.8543  0.2630 -2.7839
18581THY      O54979   5.501   0.495   3.061  0.5836  0.2850  0.2763
18581THY     HO54980   5.409   0.462   3.063  0.2661 -0.7805  1.0278
18581THY    CA154981   5.560   0.413   2.970 -0.4516  0.0893 -0.4813
18581THY    CA254982   5.579   0.448   2.841 -0.1754  0.1619 -0.2806
18581THY    CP154983   5.524   0.581   2.797 -0.3722 -0.5754  0.1828
18581THY    HP154984   5.550   0.644   2.884 -1.6962  0.1652 -0.2638
18581THY    CP254985   5.376   0.568   2.785  0.5721 -0.2263  0.0059
18581THY    HP254986   5.324   0.662   2.764  0.3650 -0.1813 -0.0989
18581THY    HP354987   5.330   0.541   2.880  1.7611  0.4261  0.2097
18581THY    HP454988   5.358   0.495   2.705 -1.7344 -0.8613  1.1955
18581THY    CP354989   5.599   0.652   2.682  0.5957 -0.1169  0.8244
18581THY    HP554990   5.552   0.750   2.673 -0.0333 -0.2009  0.5222
18581THY    HP654991   5.573   0.593   2.592 -1.0390  0.4419  0.6251
18581THY    HP754992   5.708   0.651   2.694  0.5795  0.7271  3.2855
18581THY    CA354993   5.660   0.369   2.756  0.4788 -0.6080  0.0767
18581THY    HA354994   5.670   0.396   2.652 -0.5350 -0.6855  0.2237
18581THY    CA454995   5.725   0.257   2.814  0.1206 -1.0335  0.0006
18581THY    HA454996   5.785   0.191   2.753  1.3167  1.5763 -1.4703
18581THY    CA554997   5.711   0.232   2.949 -0.3578  0.3950  0.4624
18581THY    CM154998   5.766   0.114   3.005 -0.5327  0.1825  0.0594
18581THY    HM154999   5.756   0.119   3.114 -1.2557  0.0776  1.8569
18581THY    HM255000   5.872   0.106   2.977 -0.8573 -1.2344  0.3932
18581THY    HM355001   5.703   0.031   2.971 -4.4680  1.1200  2.3947
18581THY    CA655002   5.626   0.305   3.027  0.4089 -0.5291  0.9271
18581THY    HA655003   5.600   0.281   3.130  0.0865 -1.4022 -3.1620
18582THY      O55004   8.903   5.957   3.243 -0.7490  0.3878  0.3423
18582THY     HO55005   8.936   5.900   3.171 -2.1517  0.2294 -0.3059
18582THY    CA155006   8.792   5.894   3.288  0.3939 -0.9220 -0.4002
18582THY    CA255007   8.720   5.949   3.401 -0.5259  0.4521 -0.5529
18582THY    CP155008   8.766   6.067   3.482 -0.0000  0.2519 -0.2886
18582THY    HP155009   8.873   6.078   3.463  0.1565  1.4873  0.5489
18582THY    CP255010   8.746   6.060   3.636 -0.3524 -0.7316 -0.7209
18582THY    HP255011   8.806   6.136   3.688 -0.6808  1.0249 -1.6247
18582THY    HP355012   8.767   5.968   3.691 -0.7006  1.1073  0.2603
18582THY    HP455013   8.640   6.076   3.657 -0.2167 -0.3281 -0.3459
18582THY    CP355014   8.708   6.201   3.426 -0.1842 -0.3684  0.3886
18582THY    HP555015   8.599   6.195   3.418 -0.0663 -1.0380 -1.6224
18582THY    HP655016   8.749   6.219   3.326 -1.8936 -0.9896  1.0053
18582THY    HP755017   8.717   6.287   3.493 -1.2263  1.3033 -0.7299
18582THY    CA355018   8.604   5.882   3.435  0.2290 -0.7374  0.1621
18582THY    HA355019   8.556   5.907   3.529 -1.2219 -1.0014 -1.4569
18582THY    CA455020   8.559   5.767   3.364 -0.0565  0.0972  0.2121
18582THY    HA455021   8.458   5.732   3.386 -1.4927 -0.0567  3.8337
18582THY    CA555022   8.631   5.722   3.252  0.1258  0.5495  0.0665
18582THY    CM155023   8.588   5.600   3.172  0.0296 -0.3468  0.0089
18582THY    HM155024   8.638   5.508   3.207 -1.2772  2.4660  0.2595
18582THY    HM255025   8.585   5.623   3.065  0.9686 -0.1743  1.0639
18582THY    HM355026   8.483   5.589   3.200  0.3054  0.8771  0.3357
18582THY    CA655027   8.743   5.786   3.212 -0.3203 -0.4839 -0.0317
18582THY    HA655028   8.793   5.748   3.124 -1.2548 -0.6541 -0.9001
18583THY      O55029   9.276   4.923   4.633  0.9676 -0.2372  0.2262
18583THY     HO55030   9.338   4.917   4.708 -0.1728  0.7990  0.8347
18583THY    CA155031   9.313   5.032   4.559 -0.8721  0.4333  0.5396
18583THY    CA255032   9.288   5.040   4.419  0.1614 -0.1636 -0.4228
18583THY    CP155033   9.235   4.921   4.335  0.3274  0.0339 -0.0270
18583THY    HP155034   9.160   4.869   4.396 -1.1198  1.4468  3.3988
18583THY    CP255035   9.345   4.824   4.291 -0.5005  0.4212  0.3866
18583THY    HP255036   9.324   4.748   4.215  0.3673 -1.4252  1.9121
18583THY    HP355037   9.392   4.777   4.378 -1.9785  0.8590 -0.3497
18583THY    HP455038   9.435   4.871   4.251 -0.3992 -0.7077 -0.7344
18583THY    CP355039   9.152   4.982   4.213  0.1253 -0.2856  0.7786
18583THY    HP555040   9.068   5.049   4.237 -0.3359  0.4328 -0.0347
18583THY    HP655041   9.104   4.898   4.162  1.6987  1.9697 -1.6368
18583THY    HP755042   9.217   5.031   4.140  0.2879  0.4956  1.7636
18583THY    CA355043   9.341   5.155   4.353 -0.2810  0.0133 -0.5783
18583THY    HA355044   9.347   5.153   4.244  1.9648  0.0936 -1.5045
18583THY    CA455045   9.407   5.257   4.428 -0.3561  0.2645 -0.0342
18583THY    HA455046   9.458   5.334   4.372 -1.5371 -0.0638  0.5322
18583THY    CA555047   9.429   5.245   4.566 -0.1966 -0.2745 -0.3015
18583THY    CM155048   9.516   5.348   4.632 -0.2181  0.5026  0.5400
18583THY    HM155049   9.582   5.290   4.698  0.5266  1.6766  2.6134
18583THY    HM255050   9.460   5.424   4.688  0.1914  0.1684  1.0924
18583THY    HM355051   9.575   5.401   4.556  0.6071  1.1663  0.6010
18583THY    CA655052   9.380   5.133   4.634  0.1686  0.0311 -0.2692
18583THY    HA655053   9.377   5.120   4.741  0.2452  0.0130 -0.4341
18584THY      O55054   0.446   8.141   6.595 -0.1082 -0.0857 -0.0304
18584THY     HO55055   0.383   8.068   6.583 -0.8506  0.2710  0.5426
18584THY    CA155056   0.460   8.212   6.476  0.2493 -0.2772 -0.0826
18584THY    CA255057   0.512   8.340   6.481  0.6358  0.2525  0.6157
18584THY    CP155058   0.556   8.413   6.605 -0.1844 -0.7091 -0.1660
18584THY    HP155059   0.520   8.365   6.698  0.1712 -0.9105 -0.8431
18584THY    CP255060   0.508   8.562   6.624  0.5582  0.0773  0.3723
18584THY    HP255061   0.474   8.582   6.727  3.1558  1.0266  0.3716
18584THY    HP355062   0.420   8.584   6.563  1.0759 -0.8804 -0.1473
18584THY    HP455063   0.587   8.635   6.603  0.6048 -4.2100 -0.6606
18584THY    CP355064   0.706   8.403   6.615 -0.0806 -0.6997 -0.2902
18584THY    HP555065   0.756   8.470   6.544 -0.2860 -0.7948 -0.2384
18584THY    HP655066   0.725   8.297   6.595 -2.3168 -1.5468 -0.5779
18584THY    HP755067   0.726   8.424   6.721  0.1477 -0.1884 -2.8372
18584THY    CA355068   0.520   8.405   6.356 -0.4500  0.2380 -0.4768
18584THY    HA355069   0.565   8.504   6.346 -2.9549  2.1092  0.9697
18584THY    CA455070   0.485   8.336   6.238 -0.2887  0.0227  0.5657
18584THY    HA455071   0.504   8.385   6.143 -1.3862 -0.2877  0.4092
18584THY    CA555072   0.428   8.207   6.242 -0.0264  0.0186 -0.1290
18584THY    CM155073   0.369   8.143   6.123  0.2103  0.2570 -0.2693
18584THY    HM155074   0.352   8.035   6.132  0.1582  0.5531 -0.2362
18584THY    HM255075   0.432   8.150   6.034 -0.7599 -0.4315 -0.0761
18584THY    HM355076   0.268   8.177   6.099  0.5477 -0.2995  0.3708
18584THY    CA655077   0.420   8.145   6.365 -0.1401 -0.0304  0.9611
18584THY    HA655078   0.378   8.045   6.376 -0.7380 -1.3167  1.0622
18585THY      O55079   2.120   5.024   4.491  0.1026  0.0306 -0.6942
18585THY     HO55080   2.032   5.048   4.527 -0.1498 -0.9874 -0.0014
18585THY    CA155081   2.196   4.983   4.600  0.4075  0.3747  0.3910
18585THY    CA255082   2.337   4.955   4.591  0.2483  0.1069  0.1869
18585THY    CP155083   2.413   4.982   4.469 -0.9938 -0.5141 -0.5099
18585THY    HP155084   2.352   4.949   4.384 -0.1382 -1.5179  0.4237
18585THY    CP255085   2.540   4.894   4.452 -0.3618 -0.4918 -0.0295
18585THY    HP255086   2.522   4.787   4.462 -1.9364 -2.2693  0.0096
18585THY    HP355087   2.619   4.936   4.515 -1.8381 -1.0062  3.9633
18585THY    HP455088   2.567   4.907   4.347 -0.3150 -0.5147 -0.3155
18585THY    CP355089   2.452   5.138   4.454  0.0702 -0.0855 -0.0453
18585THY    HP555090   2.489   5.162   4.354 -0.6293 -0.8553 -1.9613
18585THY    HP655091   2.528   5.161   4.529  1.2656 -1.1331 -0.4863
18585THY    HP755092   2.365   5.202   4.473  0.3034  0.4393  0.1115
18585THY    CA355093   2.392   4.910   4.716 -0.5355  0.1126 -0.1398
18585THY    HA355094   2.498   4.885   4.720 -0.6373  0.4065 -0.5265
18585THY    CA455095   2.315   4.891   4.836  0.2701 -0.1077 -0.5361
18585THY    HA455096   2.362   4.856   4.928 -0.5930  0.7336  0.4449
18585THY    CA555097   2.182   4.944   4.834 -0.5013  0.3528  0.2939
18585THY    CM155098   2.093   4.933   4.961 -0.4725  0.0260  0.2423
18585THY    HM155099   2.010   4.869   4.929 -0.5695 -1.7459  1.1893
18585THY    HM255100   2.063   5.035   4.989  0.9708  0.3973  0.5877
18585THY    HM355101   2.152   4.889   5.041 -0.4197 -0.2997 -0.2834
18585THY    CA655102   2.128   4.985   4.719  0.2771  0.2917  0.5565
18585THY    HA655103   2.025   5.016   4.726 -0.0408 -0.7204 -0.2430
18586THY      O55104   3.631   5.643   6.227  0.4217 -0.3706 -0.0852
18586THY     HO55105   3.678   5.714   6.273  0.9197  1.3129 -1.4364
18586THY    CA155106   3.729   5.547   6.203 -0.4678 -0.6781  0.0807
18586THY    CA255107   3.691   5.411   6.174  0.7915 -0.4053  0.2060
18586THY    CP155108   3.540   5.381   6.151  0.1680 -0.5709 -0.2181
18586THY    HP155109   3.482   5.432   6.229  0.6518  0.7619 -1.6416
18586THY    CP255110   3.500   5.234   6.153  0.1041  0.6304  0.1335
18586THY    HP255111   3.510   5.192   6.052 -1.8386  1.4931 -2.7202
18586THY    HP355112   3.394   5.225   6.179  0.7014  3.8769  1.3518
18586THY    HP455113   3.544   5.156   6.216 -0.8311 -1.1103 -1.8889
18586THY    CP355114   3.501   5.433   6.016  0.5270 -0.1367 -0.3713
18586THY    HP555115   3.409   5.383   5.985  0.9984  1.0476 -2.0855
18586THY    HP655116   3.578   5.398   5.947  0.0933 -1.1629  0.6631
18586THY    HP755117   3.495   5.542   6.008 -0.4365 -0.5118 -0.4505
18586THY    CA355118   3.789   5.314   6.155 -0.8009 -0.6480  0.3078
18586THY    HA355119   3.768   5.214   6.117  2.6183 -0.8824 -0.4259
18586THY    CA455120   3.924   5.348   6.160 -0.6329 -0.1149 -0.2393
18586THY    HA455121   4.003   5.275   6.146 -0.8194  0.6443 -0.5931
18586THY    CA555122   3.958   5.477   6.194  0.1340 -0.4681 -1.0716
18586THY    CM155123   4.100   5.525   6.199  1.0256  0.2304  0.3471
18586THY    HM155124   4.129   5.585   6.112 -2.1601 -0.2446  1.3857
18586THY    HM255125   4.160   5.433   6.197  0.3034 -1.3978 -0.1274
18586THY    HM355126   4.139   5.589   6.279  0.9643 -0.6946  1.5819
18586THY    CA655127   3.864   5.582   6.214 -0.5948 -0.1683  0.3358
18586THY    HA655128   3.896   5.686   6.219 -0.3679 -1.2574  0.3272
18587THY      O55129   5.973   7.813   6.804 -0.0495  0.2014  0.4418
18587THY     HO55130   5.940   7.821   6.712 -1.3435  0.6921  1.1898
18587THY    CA155131   6.078   7.901   6.816  1.4491 -0.1590 -0.0694
18587THY    CA255132   6.206   7.864   6.827 -0.2169 -0.0488 -0.3035
18587THY    CP155133   6.238   7.717   6.854  0.1366  0.2651 -0.5644
18587THY    HP155134   6.166   7.659   6.796 -1.5619 -0.6053  2.2053
18587THY    CP255135   6.223   7.686   7.009 -0.0221  0.4248 -0.6043
18587THY    HP255136   6.126   7.716   7.048 -0.2782 -1.7993  1.9157
18587THY    HP355137   6.302   7.746   7.056  0.1198 -0.1982 -0.2948
18587THY    HP455138   6.226   7.577   7.019  1.6026 -2.5665 -0.9576
18587THY    CP355139   6.379   7.681   6.807  0.1341  0.7454 -0.4615
18587THY    HP555140   6.466   7.736   6.844 -1.1687  3.1894  0.0689
18587THY    HP655141   6.385   7.702   6.699  0.5020  0.4936 -1.7958
18587THY    HP755142   6.401   7.576   6.829  0.6475  0.5882 -0.3908
18587THY    CA355143   6.307   7.960   6.812  0.0267 -0.0490  0.3178
18587THY    HA355144   6.414   7.939   6.807  0.2005 -1.2304  1.3439
18587THY    CA455145   6.266   8.094   6.783 -0.5361  0.3000  0.0214
18587THY    HA455146   6.337   8.175   6.794  1.7351 -2.4505 -1.4453
18587THY    CA555147   6.127   8.129   6.788 -0.0716  0.1554 -0.1711
18587THY    CM155148   6.077   8.269   6.779 -0.4736  0.2224  0.6695
18587THY    HM155149   5.971   8.284   6.803 -0.4546  0.6259  0.1879
18587THY    HM255150   6.097   8.294   6.674  1.0074  0.2528 -0.2609
18587THY    HM355151   6.138   8.342   6.833 -1.1960  0.3199  1.2030
18587THY    CA655152   6.035   8.032   6.813 -0.0552 -0.1384 -0.3876
18587THY    HA655153   5.930   8.057   6.810 -0.0392 -1.7090 -0.3614
18588THY      O55154   5.552   5.521   3.839  0.1961 -0.1331  0.1847
18588THY     HO55155   5.504   5.586   3.893 -2.0673 -1.5176 -0.2132
18588THY    CA155156   5.582   5.421   3.923  0.5809  0.4736 -0.6042
18588THY    CA255157   5.695   5.335   3.898  0.3305  0.4210 -0.8299
18588THY    CP155158   5.772   5.331   3.768  0.6543  0.5149 -0.0436
18588THY    HP155159   5.758   5.417   3.702 -0.4068  0.6374 -0.1095
18588THY    CP255160   5.728   5.209   3.677 -0.1404  0.0978 -0.2500
18588THY    HP255161   5.774   5.212   3.577 -0.7270 -0.1857 -0.5388
18588THY    HP355162   5.620   5.195   3.662  0.0268 -1.9368  0.2981
18588THY    HP455163   5.765   5.118   3.725 -1.5612  0.7163 -0.5285
18588THY    CP355164   5.925   5.318   3.787  0.2342  0.4945  0.1190
18588THY    HP555165   5.956   5.398   3.855 -1.6480  3.0998 -1.2398
18588THY    HP655166   5.965   5.335   3.686 -1.6440  0.0704  2.8324
18588THY    HP755167   5.954   5.217   3.818 -0.2338 -0.3627 -0.2875
18588THY    CA355168   5.723   5.242   4.001 -0.7004  0.0190  0.1994
18588THY    HA355169   5.805   5.172   3.985 -0.7650 -0.5155  0.2471
18588THY    CA455170   5.657   5.237   4.126 -0.8629  0.4886 -0.1368
18588THY    HA455171   5.696   5.173   4.204 -0.9923 -0.3414 -1.2577
18588THY    CA555172   5.564   5.339   4.152 -0.1679  0.6838  0.1217
18588THY    CM155173   5.497   5.331   4.292 -0.1589  0.6719  0.0698
18588THY    HM155174   5.433   5.417   4.314  0.4596 -0.1340  0.7568
18588THY    HM255175   5.583   5.318   4.358  1.3001 -0.9455  1.0647
18588THY    HM355176   5.430   5.244   4.297  1.3499  4.4057 -1.0659
18588THY    CA655177   5.529   5.428   4.051 -0.3111 -0.0082  0.0528
18588THY    HA655178   5.452   5.504   4.062 -0.5188 -2.7814  0.3410
18589THY      O55179   8.323   1.765   7.095 -0.5174  0.0382 -0.2205
18589THY     HO55180   8.364   1.681   7.123  0.1438 -1.4179 -0.4218
18589THY    CA155181   8.266   1.746   6.974 -0.2959 -0.0424 -0.3624
18589THY    CA255182   8.194   1.847   6.908  0.5479  0.5432  0.4160
18589THY    CP155183   8.176   1.985   6.966  0.1069 -0.0204  0.5639
18589THY    HP155184   8.176   1.973   7.075 -2.6701  0.0091  0.1466
18589THY    CP255185   8.034   2.046   6.943 -0.2598 -0.0338 -0.1796
18589THY    HP255186   7.957   1.970   6.957 -0.6017 -0.3543  0.1065
18589THY    HP355187   8.022   2.098   6.847  0.4114 -0.5008 -0.8671
18589THY    HP455188   8.020   2.112   7.029 -1.3350  0.7323 -1.3666
18589THY    CP355189   8.293   2.079   6.937 -0.4991 -0.4097  1.1183
18589THY    HP555190   8.271   2.169   6.878  0.4149 -1.2487  0.8040
18589THY    HP655191   8.368   2.027   6.878 -0.6356 -0.9054  1.4764
18589THY    HP755192   8.349   2.106   7.028 -2.0777  0.7627  0.6031
18589THY    CA355193   8.134   1.820   6.780  0.1733 -0.1064  0.7111
18589THY    HA355194   8.069   1.888   6.726 -1.2715 -0.2002 -0.6888
18589THY    CA455195   8.138   1.689   6.736  0.1716  0.4165  0.2817
18589THY    HA455196   8.082   1.659   6.648  0.5522  0.2133  0.1535
18589THY    CA555197   8.209   1.588   6.805  0.2926 -0.8965  0.3457
18589THY    CM155198   8.209   1.441   6.761  0.1415 -0.1801  0.0204
18589THY    HM155199   8.238   1.438   6.656  2.6583  0.4694 -0.2684
18589THY    HM255200   8.105   1.408   6.776  0.1673  3.5821  1.1467
18589THY    HM355201   8.270   1.370   6.818  0.0774  2.3643  1.8838
18589THY    CA655202   8.275   1.618   6.923  0.2266 -0.5098 -0.0478
18589THY    HA655203   8.323   1.532   6.969  2.3005  1.9527  2.2760
18590THY      O55204   3.473   1.997   3.819 -0.0349  0.0883  0.1711
18590THY     HO55205   3.493   2.089   3.843 -2.5844  1.1303  0.5480
18590THY    CA155206   3.338   1.996   3.802 -0.2213 -0.1121 -0.5160
18590THY    CA255207   3.254   1.909   3.866  0.4075 -0.3204  0.4362
18590THY    CP155208   3.310   1.814   3.973 -0.2818  0.1836 -0.6798
18590THY    HP155209   3.417   1.804   3.953  0.0730 -0.4883  3.0357
18590THY    CP255210   3.234   1.683   3.990  0.2808 -0.4088 -0.0402
18590THY    HP255211   3.247   1.623   3.900 -1.5630 -1.1466  0.5780
18590THY    HP355212   3.125   1.693   3.999  0.3116  2.2397 -1.3695
18590THY    HP455213   3.270   1.623   4.074 -0.9465 -1.3471 -2.1842
18590THY    CP355214   3.294   1.892   4.101 -0.3169  0.1965 -0.3938
18590THY    HP555215   3.316   1.834   4.191 -0.5844  0.9614  0.6513
18590THY    HP655216   3.189   1.918   4.122  0.0281  0.0094  1.2806
18590THY    HP755217   3.354   1.983   4.108 -1.7440 -3.6119  1.0292
18590THY    CA355218   3.116   1.914   3.850 -0.0975 -0.3334 -0.9006
18590THY    HA355219   3.043   1.870   3.917 -0.4034  0.7877  1.2007
18590THY    CA455220   3.063   2.013   3.760 -0.0889  0.9088  0.5757
18590THY    HA455221   2.956   2.025   3.743 -0.1871 -0.0807 -1.3785
18590THY    CA555222   3.153   2.099   3.689 -0.0221 -0.4435  0.2061
18590THY    CM155223   3.107   2.205   3.603 -0.5547  0.8487  0.3836
18590THY    HM155224   3.121   2.300   3.656 -1.0671  1.1985  0.2684
18590THY    HM255225   3.002   2.196   3.574  0.0702 -0.9710 -2.2043
18590THY    HM355226   3.177   2.226   3.521 -0.8388  1.2861  3.4590
18590THY    CA655227   3.284   2.088   3.712 -0.5684  0.5548  0.4006
18590THY    HA655228   3.350   2.168   3.680  1.3174  2.0799 -0.4496
18591THY      O55229   2.075   7.147   7.101 -0.1911  0.0286  0.1323
18591THY     HO55230   2.079   7.155   7.005  0.8943  0.1861  2.4939
18591THY    CA155231   2.033   7.265   7.154  0.2883  0.0985 -0.3694
18591THY    CA255232   1.982   7.272   7.289  0.5446 -0.5474 -1.0925
18591THY    CP155233   1.980   7.155   7.386  0.7203  0.6735 -0.0019
18591THY    HP155234   2.028   7.069   7.339  0.0865 -1.2479  0.6346
18591THY    CP255235   1.834   7.119   7.412  0.1496  0.0369 -0.3595
18591THY    HP255236   1.780   7.092   7.320 -0.1102  0.6393 -1.9724
18591THY    HP355237   1.779   7.209   7.444 -2.3531 -0.5719 -1.5787
18591THY    HP455238   1.831   7.036   7.482  0.6055  0.8245  0.2732
18591THY    CP355239   2.035   7.188   7.529 -0.0183  0.5981 -0.0681
18591THY    HP555240   2.034   7.098   7.591 -0.5631 -0.3103 -0.6938
18591THY    HP655241   1.983   7.269   7.582  0.8473  0.9040  0.3053
18591THY    HP755242   2.136   7.233   7.530 -0.3621  1.1975  0.7289
18591THY    CA355243   1.930   7.398   7.329 -0.0487  0.2735 -0.4660
18591THY    HA355244   1.887   7.414   7.427 -0.0441  0.2977 -0.5993
18591THY    CA455245   1.942   7.512   7.234  0.0050  0.0658  0.1133
18591THY    HA455246   1.904   7.609   7.266 -0.6059  0.9014 -0.3917
18591THY    CA555247   2.001   7.501   7.111  0.3694  0.1253  0.0326
18591THY    CM155248   2.002   7.621   7.023 -0.2626  0.3401 -0.1932
18591THY    HM155249   1.901   7.662   7.010  0.0281  1.5330  0.9421
18591THY    HM255250   2.057   7.606   6.929  0.3476  0.9445 -2.0194
18591THY    HM355251   2.050   7.708   7.069  1.5651 -1.8295  0.0271
18591THY    CA655252   2.036   7.375   7.066  0.5979  0.6598  0.3275
18591THY    HA655253   2.066   7.364   6.962  0.3215  0.6213 -0.0897
18592THY      O55254   4.855   8.165   7.516  0.0308 -0.6555 -0.2026
18592THY     HO55255   4.799   8.239   7.487  1.7030  1.9695  2.3042
18592THY    CA155256   4.786   8.050   7.484  0.2434  0.4423 -0.3209
18592THY    CA255257   4.861   7.928   7.479 -0.5257 -0.7480 -0.1795
18592THY    CP155258   5.001   7.919   7.540 -0.1594 -0.0240  0.5595
18592THY    HP155259   5.022   8.022   7.570 -1.5245  0.5546  0.6800
18592THY    CP255260   5.093   7.894   7.419  0.2550 -0.2355  0.7138
18592THY    HP255261   5.078   7.980   7.353  2.5995 -0.3882  1.0481
18592THY    HP355262   5.053   7.806   7.367 -1.0217  0.9455  0.5582
18592THY    HP455263   5.196   7.883   7.454  0.1783 -0.3419 -0.5273
18592THY    CP355264   5.024   7.825   7.654 -0.2049 -0.7408  0.1489
18592THY    HP555265   4.950   7.834   7.734  0.3219 -0.2628  0.2688
18592THY    HP655266   5.120   7.863   7.690  0.1497  0.4674 -1.7522
18592THY    HP755267   5.035   7.718   7.629  0.7611  1.8993 -0.4472
18592THY    CA355268   4.789   7.816   7.435 -1.0231 -0.2310  0.0704
18592THY    HA355269   4.845   7.723   7.427 -0.6580 -0.7567  0.3270
18592THY    CA455270   4.658   7.829   7.388 -0.0260 -0.4416 -0.1407
18592THY    HA455271   4.614   7.737   7.351  1.6239  1.4267 -1.7845
18592THY    CA555272   4.595   7.950   7.386  0.7793 -0.2060  0.2721
18592THY    CM155273   4.451   7.966   7.332 -0.6717  0.3759  0.4983
18592THY    HM155274   4.390   8.038   7.388  0.4916  0.3256  1.5585
18592THY    HM255275   4.403   7.868   7.329 -1.6869 -2.0739  0.9899
18592THY    HM355276   4.444   7.997   7.227 -2.6275  0.8230  1.7117
18592THY    CA655277   4.661   8.065   7.425  0.0749  0.2529  0.4065
18592THY    HA655278   4.609   8.160   7.431  1.1303 -1.7936  1.1758
18593THY      O55279   9.155   3.568   5.573  0.4998 -0.0301 -0.2167
18593THY     HO55280   9.173   3.636   5.640 -1.1735  0.4950 -0.2385
18593THY    CA155281   9.197   3.626   5.456  0.0106  1.1819 -0.8077
18593THY    CA255282   9.125   3.622   5.338  0.1456 -0.1563  0.2608
18593THY    CP155283   8.989   3.545   5.336  0.5881 -0.3812  0.6178
18593THY    HP155284   8.939   3.559   5.432  0.1212 -0.3972 -0.7871
18593THY    CP255285   9.010   3.392   5.329 -0.2031 -0.1241 -0.1560
18593THY    HP255286   9.086   3.356   5.258  2.1534  2.4505 -0.6286
18593THY    HP355287   8.915   3.345   5.302  0.2467  1.3137 -2.0021
18593THY    HP455288   9.032   3.365   5.433  2.2343  0.3539  3.1443
18593THY    CP355289   8.904   3.590   5.215 -0.1677 -1.1169  0.6456
18593THY    HP555290   8.950   3.559   5.120  1.0733  0.0482 -1.2478
18593THY    HP655291   8.903   3.699   5.219 -1.4344 -0.4912  0.6348
18593THY    HP755292   8.800   3.557   5.229 -0.5065  0.7749  2.3442
18593THY    CA355293   9.179   3.685   5.232  0.1080 -0.4529 -0.3295
18593THY    HA355294   9.141   3.669   5.132  1.4618 -1.5100  2.4144
18593THY    CA455295   9.301   3.762   5.240  0.2416  0.4194  0.2020
18593THY    HA455296   9.339   3.818   5.155 -2.5823  0.8563  3.0447
18593THY    CA555297   9.365   3.773   5.360 -0.1201  0.3891  0.6170
18593THY    CM155298   9.486   3.864   5.382  0.6841 -0.5841 -0.2070
18593THY    HM155299   9.464   3.952   5.444 -0.6133 -0.0202 -0.8984
18593THY    HM255300   9.514   3.887   5.279 -1.4176 -1.7723 -2.5401
18593THY    HM355301   9.558   3.801   5.436 -1.0867  1.4895 -0.5948
18593THY    CA655302   9.315   3.693   5.466 -0.5781  0.1836  0.6608
18593THY    HA655303   9.376   3.687   5.555 -0.9512  0.4503  0.7771
18594THY      O55304   1.801   4.806   4.361  0.4218  0.4346  0.0564
18594THY     HO55305   1.881   4.790   4.308 -1.6496 -2.4084 -1.8197
18594THY    CA155306   1.722   4.724   4.298  0.2052 -0.0748  0.2679
18594THY    CA255307   1.588   4.702   4.340 -0.1979 -0.6984  0.4518
18594THY    CP155308   1.532   4.777   4.463  0.2922  0.5864 -0.1592
18594THY    HP155309   1.621   4.809   4.519  0.4068 -0.3312  1.2211
18594THY    CP255310   1.439   4.700   4.552  0.3969  0.0019 -0.0002
18594THY    HP255311   1.352   4.664   4.495 -0.4494  0.3799  1.3959
18594THY    HP355312   1.406   4.766   4.633  1.0703  0.3103 -0.0329
18594THY    HP455313   1.495   4.618   4.598 -0.1628  2.1990  0.7867
18594THY    CP355314   1.462   4.907   4.417 -0.3306  0.1046 -0.3364
18594THY    HP555315   1.367   4.890   4.365 -0.1935 -0.4951  0.6129
18594THY    HP655316   1.536   4.964   4.358  0.3506 -1.0750 -2.3402
18594THY    HP755317   1.432   4.976   4.497  0.7113  0.6076 -0.4517
18594THY    CA355318   1.503   4.609   4.270  0.1673  0.0127  0.1883
18594THY    HA355319   1.399   4.598   4.298  0.2662  0.2523 -0.1319
18594THY    CA455320   1.562   4.543   4.159 -0.0507 -0.3968 -0.2825
18594THY    HA455321   1.502   4.472   4.104 -1.1673 -0.7147  0.8638
18594THY    CA555322   1.696   4.554   4.127 -0.2924 -0.0827  0.4223
18594THY    CM155323   1.751   4.471   4.013  0.1032  0.3184 -0.2255
18594THY    HM155324   1.826   4.522   3.951 -2.1421 -2.4751 -0.0592
18594THY    HM255325   1.680   4.449   3.932  0.2817 -0.4989  1.9625
18594THY    HM355326   1.786   4.372   4.044  0.2009  1.0905  0.0465
18594THY    CA655327   1.777   4.648   4.191 -0.2182 -0.2717  0.3800
18594THY    HA655328   1.878   4.668   4.156 -0.8621 -1.2866  2.0793
18595THY      O55329   6.851   5.861   3.687 -0.9309 -0.7595  0.3874
18595THY     HO55330   6.855   5.871   3.591  0.3037 -0.7585  0.1201
18595THY    CA155331   6.943   5.765   3.720 -0.1128  0.2753  0.3034
18595THY    CA255332   6.995   5.750   3.850 -0.0382  0.2624  1.1768
18595THY    CP155333   6.935   5.822   3.966  0.5662  0.2457  0.1020
18595THY    HP155334   6.834   5.855   3.939 -0.3322  2.7570 -0.3569
18595THY    CP255335   7.024   5.940   3.999 -0.9355 -0.0369  0.9928
18595THY    HP255336   6.991   5.992   4.089 -0.6026  0.1507  0.8815
18595THY    HP355337   7.045   6.000   3.909  0.8930 -0.3119  0.0381
18595THY    HP455338   7.119   5.899   4.035 -2.1735  1.8265 -0.3672
18595THY    CP355339   6.921   5.751   4.099 -0.1216  0.7569  0.4531
18595THY    HP555340   6.862   5.806   4.172  0.4004  0.8352  0.9222
18595THY    HP655341   7.016   5.714   4.140  0.5431 -1.6637 -0.8130
18595THY    HP755342   6.868   5.658   4.076  0.7253  1.9721 -0.3636
18595THY    CA355343   7.102   5.651   3.869 -0.6043 -0.2504  0.5614
18595THY    HA355344   7.153   5.642   3.964  3.4351 -2.2760 -0.1834
18595THY    CA455345   7.155   5.585   3.756 -0.2521 -0.2292 -0.1831
18595THY    HA455346   7.244   5.524   3.766  0.5878 -2.2754  0.6176
18595THY    CA555347   7.107   5.611   3.629  0.7982  0.2013  0.5555
18595THY    CM155348   7.171   5.541   3.518  0.2567  0.5776  0.3901
18595THY    HM155349   7.192   5.610   3.435  0.0310  2.5122  2.9075
18595THY    HM255350   7.101   5.470   3.472  0.2642 -0.6546  1.1419
18595THY    HM355351   7.255   5.482   3.555  0.4896 -1.2978 -0.5280
18595THY    CA655352   7.005   5.705   3.604  0.4361  0.7542 -0.6091
18595THY    HA655353   6.976   5.717   3.500 -1.5609  1.3932  0.7569
18596THY      O55354   0.899   5.830   2.344 -0.3348 -0.3339  0.1338
18596THY     HO55355   0.862   5.772   2.275  0.8662  0.3261 -1.5205
18596THY    CA155356   1.004   5.765   2.411  0.4328 -0.1035  0.2636
18596THY    CA255357   1.086   5.820   2.512  0.5768  0.1385  0.2266
18596THY    CP155358   1.067   5.962   2.560 -0.4934  0.3918  0.2624
18596THY    HP155359   0.960   5.986   2.562 -0.6847  1.9968 -0.5701
18596THY    CP255360   1.144   6.053   2.468  0.1178  0.8206  0.1086
18596THY    HP255361   1.160   6.149   2.517  2.2827  0.1009  0.1679
18596THY    HP355362   1.090   6.064   2.373  2.1243 -0.5044 -0.7921
18596THY    HP455363   1.246   6.019   2.445  0.3608 -0.3745  1.5388
18596THY    CP355364   1.119   5.989   2.704  0.0454  0.8873 -0.2471
18596THY    HP555365   1.062   5.919   2.766  1.3041  2.8178  0.3768
18596THY    HP655366   1.091   6.094   2.718  1.0289  1.2133 -0.0176
18596THY    HP755367   1.228   5.986   2.710  0.1678 -0.9614 -0.4890
18596THY    CA355368   1.190   5.734   2.560  0.7850  0.4749 -0.3937
18596THY    HA355369   1.250   5.769   2.644  1.5085  0.3772 -1.3475
18596THY    CA455370   1.222   5.613   2.508  0.0185 -0.2889  0.2949
18596THY    HA455371   1.295   5.548   2.556 -1.4401  1.3484 -0.2203
18596THY    CA555372   1.143   5.563   2.415  0.3451  0.1864  0.4680
18596THY    CM155373   1.177   5.427   2.350 -0.0502 -0.0914  0.1892
18596THY    HM155374   1.272   5.398   2.396  0.1298  0.7011  1.9525
18596THY    HM255375   1.194   5.443   2.243 -2.1236 -0.1242  2.9676
18596THY    HM355376   1.092   5.358   2.358  2.1451 -2.8750 -3.2232
18596THY    CA655377   1.039   5.639   2.358  0.4969  0.0172  0.5874
18596THY    HA655378   0.979   5.586   2.285  3.9376 -1.1785 -2.0108
18597THY      O55379   6.389   5.874   5.720  0.4137  0.0681  0.0767
18597THY     HO55380   6.349   5.962   5.708 -0.9677 -1.5523 -0.7111
18597THY    CA155381   6.391   5.834   5.855  0.5726  0.2181 -0.2533
18597THY    CA255382   6.418   5.707   5.892 -0.3629  1.0754 -0.0677
18597THY    CP155383   6.443   5.596   5.794 -0.0143  0.0709  0.2922
18597THY    HP155384   6.435   5.627   5.689 -0.9807  0.6087  1.9954
18597THY    CP255385   6.340   5.477   5.815  0.4296  0.2463 -0.1324
18597THY    HP255386   6.364   5.401   5.739  0.2741  0.1461 -0.0803
18597THY    HP355387   6.244   5.527   5.802 -0.1871  2.6011 -0.6086
18597THY    HP455388   6.339   5.429   5.913  3.8550  0.6924  0.4825
18597THY    CP355389   6.580   5.538   5.815 -0.3055 -0.2428  0.4731
18597THY    HP555390   6.598   5.458   5.742 -1.6688 -0.2819  0.1675
18597THY    HP655391   6.593   5.503   5.918 -0.0102 -1.2136 -2.5768
18597THY    HP755392   6.663   5.607   5.800  0.1802 -1.2974 -0.3205
18597THY    CA355393   6.428   5.679   6.026  0.1258 -0.0043  0.6955
18597THY    HA355394   6.451   5.581   6.067 -1.6770  4.6370  1.9319
18597THY    CA455395   6.422   5.782   6.115  0.0552  0.5656  0.1991
18597THY    HA455396   6.435   5.762   6.220  1.3211  0.6484  1.3305
18597THY    CA555397   6.392   5.911   6.082  0.2406 -0.1125 -0.2976
18597THY    CM155398   6.383   6.011   6.186  0.5792  0.5400  0.0196
18597THY    HM155399   6.476   6.005   6.244 -0.1682  2.0164  1.5408
18597THY    HM255400   6.300   5.982   6.252 -0.8356 -1.7192 -1.3683
18597THY    HM355401   6.373   6.110   6.140  0.2245 -1.4970 -0.9338
18597THY    CA655402   6.378   5.936   5.949 -0.4684 -0.1533 -0.3014
18597THY    HA655403   6.363   6.038   5.917  1.1236  1.6894  0.5799
18598THY      O55404   7.041   8.397   2.870  0.2164 -0.0390 -0.5925
18598THY     HO55405   7.132   8.431   2.878 -0.6236 -0.0273  1.8344
18598THY    CA155406   7.054   8.261   2.880 -0.2542 -0.0176 -0.0366
18598THY    CA255407   6.947   8.176   2.862  0.7680  0.3403  0.2697
18598THY    CP155408   6.802   8.233   2.827 -0.3279 -0.0190  0.3283
18598THY    HP155409   6.818   8.336   2.795  1.7461 -1.9465 -0.5086
18598THY    CP255410   6.722   8.233   2.957 -0.1069 -0.7414  0.8966
18598THY    HP255411   6.615   8.253   2.947 -0.1822  0.1067  0.9896
18598THY    HP355412   6.762   8.303   3.031  1.9273  0.6476 -1.5192
18598THY    HP455413   6.723   8.128   2.992 -0.3860  1.6303  1.6123
18598THY    CP355414   6.734   8.152   2.722 -0.8120 -0.8395 -0.3802
18598THY    HP555415   6.670   8.229   2.677 -0.0538  0.4385  1.0362
18598THY    HP655416   6.689   8.057   2.755  1.9540 -1.5268 -2.0556
18598THY    HP755417   6.814   8.128   2.650 -0.5410 -0.8595  0.5380
18598THY    CA355418   6.973   8.034   2.873 -0.3956  0.1282 -0.4073
18598THY    HA355419   6.894   7.964   2.851 -1.2892 -0.0365  0.6337
18598THY    CA455420   7.104   7.993   2.911  0.5858  0.7031  0.0647
18598THY    HA455421   7.121   7.886   2.917 -0.5418  2.5625 -0.0417
18598THY    CA555422   7.203   8.079   2.938  0.0804 -0.6627 -0.2744
18598THY    CM155423   7.337   8.036   2.985  0.0385  0.3774 -0.7670
18598THY    HM155424   7.351   7.928   2.967  1.3492 -0.6573 -0.4432
18598THY    HM255425   7.358   8.063   3.089 -2.2099  0.6050  0.3094
18598THY    HM355426   7.419   8.071   2.922 -0.0364 -0.2138 -1.6076
18598THY    CA655427   7.177   8.216   2.921 -0.3458  0.3027  0.3627
18598THY    HA655428   7.259   8.282   2.948  1.5248 -0.9615 -1.3511
18599THY      O55429   1.030   8.657   3.033  0.1341 -0.5887  0.9234
18599THY     HO55430   1.013   8.739   3.083 -1.0713  1.7923 -0.6983
18599THY    CA155431   1.147   8.678   2.968  0.2085  0.3954  0.2015
18599THY    CA255432   1.206   8.588   2.870 -0.1610 -1.1126  0.1399
18599THY    CP155433   1.126   8.468   2.840 -0.1511 -0.0558 -0.1588
18599THY    HP155434   1.025   8.489   2.877 -0.1496  1.6383 -2.6683
18599THY    CP255435   1.186   8.340   2.907 -0.2005 -0.0282  0.5194
18599THY    HP255436   1.286   8.324   2.865 -0.4090 -0.8053  1.1780
18599THY    HP355437   1.128   8.256   2.867 -1.5557 -0.9310  1.8367
18599THY    HP455438   1.187   8.346   3.016  1.9983 -0.0238  0.8206
18599THY    CP355439   1.119   8.455   2.682 -0.2773 -0.1456 -1.0790
18599THY    HP555440   1.041   8.386   2.650 -1.2493 -0.6246  0.2040
18599THY    HP655441   1.207   8.409   2.635 -0.9310 -1.7050 -0.8156
18599THY    HP755442   1.120   8.556   2.639  1.5905 -0.0193 -0.9996
18599THY    CA355443   1.326   8.624   2.800 -0.4611  0.5792 -0.1191
18599THY    HA355444   1.365   8.566   2.717 -0.5195  0.6469 -0.2567
18599THY    CA455445   1.400   8.735   2.844  0.4510  0.2875 -0.2588
18599THY    HA455446   1.495   8.761   2.798  0.4111  1.3103  1.9030
18599THY    CA555447   1.347   8.815   2.947 -0.3628  0.5499  0.4342
18599THY    CM155448   1.419   8.939   2.989 -0.6792 -0.2568 -0.1395
18599THY    HM155449   1.524   8.907   2.986 -0.7406 -1.3367 -0.2581
18599THY    HM255450   1.385   8.964   3.090 -0.6544 -0.4762  0.7946
18599THY    HM355451   1.401   9.023   2.921 -1.8690 -1.1567 -1.0860
18599THY    CA655452   1.221   8.791   3.003  0.8172  0.0692 -0.3838
18599THY    HA655453   1.179   8.866   3.070  0.8721 -1.3794  0.9852
18600THY      O55454   0.670   8.759   3.237 -0.2301  0.3377 -0.2981
18600THY     HO55455   0.645   8.687   3.176 -0.7007  1.6355 -1.2593
18600THY    CA155456   0.564   8.771   3.321 -0.0514  0.7303  0.7381
18600THY    CA255457   0.521   8.894   3.376 -1.5181 -0.0719  0.8509
18600THY    CP155458   0.577   9.026   3.323  0.3338 -0.5144 -0.7583
18600THY    HP155459   0.661   9.014   3.253  1.0877  0.0905  0.6694
18600THY    CP255460   0.632   9.116   3.440 -0.2968  0.9897 -0.3107
18600THY    HP255461   0.713   9.051   3.477  1.9080 -1.5151  0.8274
18600THY    HP355462   0.549   9.141   3.507 -1.4496  1.0773 -3.8169
18600THY    HP455463   0.674   9.213   3.413  0.2119  1.4886 -0.3828
18600THY    CP355464   0.474   9.109   3.241  0.6501 -0.3455 -0.9695
18600THY    HP555465   0.382   9.131   3.297  1.4970  0.8991 -0.5368
18600THY    HP655466   0.435   9.049   3.157 -0.8618 -1.9984  2.0803
18600THY    HP755467   0.513   9.201   3.195  1.8801  0.9522 -0.8131
18600THY    CA355468   0.420   8.896   3.465  0.8597 -0.2678  0.4771
18600THY    HA355469   0.370   8.983   3.507 -1.6445 -0.3143 -0.8251
18600THY    CA455470   0.354   8.776   3.501  0.4272 -0.4072  0.0259
18600THY    HA455471   0.268   8.774   3.568 -0.1768 -1.0984  1.5259
18600THY    CA555472   0.392   8.656   3.448 -0.2691 -0.3994  0.5750
18600THY    CM155473   0.325   8.531   3.488 -0.1297 -0.4291 -0.4453
18600THY    HM155474   0.340   8.492   3.589 -0.4779 -0.3395 -0.3557
18600THY    HM255475   0.350   8.443   3.427  2.0428  1.5452 -1.3064
18600THY    HM355476   0.220   8.540   3.458  0.5474 -3.3539 -1.0317
18600THY    CA655477   0.493   8.655   3.355 -0.1745 -0.2099 -0.1060
18600THY    HA655478   0.522   8.555   3.321 -0.7764  2.1071 -1.1299
18601THY      O55479   8.850   1.509   2.325  0.0840 -0.2797  0.7563
18601THY     HO55480   8.830   1.418   2.298  3.0116  0.4185 -0.1847
18601THY    CA155481   8.949   1.548   2.241 -0.3645 -0.5831 -0.3301
18601THY    CA255482   8.948   1.677   2.180  0.3667 -0.2248  0.3831
18601THY    CP155483   8.823   1.770   2.212 -0.2305 -0.3685  0.5249
18601THY    HP155484   8.794   1.764   2.318  0.5295  0.1510  3.8925
18601THY    CP255485   8.705   1.731   2.122 -0.5145 -1.1140 -0.6015
18601THY    HP255486   8.718   1.756   2.016  0.2115 -0.7352  0.7635
18601THY    HP355487   8.622   1.801   2.139 -0.1442 -1.2610 -0.1176
18601THY    HP455488   8.664   1.631   2.142 -2.2636  1.2916  0.4826
18601THY    CP355489   8.853   1.922   2.199 -0.5663 -0.5472 -1.2847
18601THY    HP555490   8.884   1.943   2.096 -1.5449 -0.4271  1.0291
18601THY    HP655491   8.929   1.959   2.268  0.3127 -1.6995 -0.8581
18601THY    HP755492   8.756   1.974   2.201 -0.5304  0.4727 -1.2521
18601THY    CA355493   9.045   1.715   2.087  0.2214 -0.1935  0.7320
18601THY    HA355494   9.030   1.802   2.024  0.9769 -1.3387  0.0673
18601THY    CA455495   9.156   1.626   2.066 -0.2694 -0.0102 -0.4179
18601THY    HA455496   9.236   1.661   2.001 -1.1962  0.1562  2.1807
18601THY    CA555497   9.161   1.501   2.128  0.0147  0.8979 -0.1037
18601THY    CM155498   9.268   1.402   2.091 -0.1556  0.5628 -0.0907
18601THY    HM155499   9.247   1.368   1.989  0.1504 -0.4072  2.4531
18601THY    HM255500   9.296   1.329   2.168 -2.3675  0.6526 -0.9142
18601THY    HM355501   9.357   1.466   2.081 -0.2138  2.3471  0.3225
18601THY    CA655502   9.057   1.464   2.209  0.6941  0.3558  0.9301
18601THY    HA655503   9.063   1.370   2.264 -0.7826  1.2071  1.2881
18602THY      O55504   4.742   7.423   6.644 -0.2116 -0.2895 -0.4441
18602THY     HO55505   4.667   7.483   6.656  0.4207  0.6028  0.1960
18602THY    CA155506   4.857   7.495   6.635 -0.4099  0.1813 -0.8017
18602THY    CA255507   4.928   7.555   6.740  0.7632 -0.0503  0.1576
18602THY    CP155508   4.859   7.548   6.866 -0.1632 -1.2579 -0.7560
18602THY    HP155509   4.751   7.567   6.863  0.1214  1.4179  2.0271
18602THY    CP255510   4.912   7.651   6.974 -0.2986  0.2447  0.3773
18602THY    HP255511   4.849   7.661   7.063  0.0888  0.3835  1.9644
18602THY    HP355512   4.915   7.754   6.937  0.6320  1.6125  0.8728
18602THY    HP455513   5.017   7.627   6.996 -0.4534  1.3424  0.6200
18602THY    CP355514   4.876   7.413   6.932  0.1160 -0.8111  0.5610
18602THY    HP555515   4.812   7.349   6.870 -0.3513 -1.2857  1.4684
18602THY    HP655516   4.820   7.406   7.026 -0.9702 -1.4736 -0.0885
18602THY    HP755517   4.977   7.388   6.965 -0.6986 -0.4322 -2.6848
18602THY    CA355518   5.055   7.606   6.721 -0.2130  0.1476 -0.0741
18602THY    HA355519   5.114   7.648   6.801 -1.7379  1.0144  0.4939
18602THY    CA455520   5.106   7.617   6.590  0.3111  0.8196 -0.0347
18602THY    HA455521   5.206   7.657   6.576  0.9774  2.2516 -1.1538
18602THY    CA555522   5.036   7.564   6.479 -0.3860 -0.2147  0.1071
18602THY    CM155523   5.080   7.563   6.341  0.5112 -0.0709  0.1188
18602THY    HM155524   5.186   7.545   6.316  1.1491 -1.0146  4.1430
18602THY    HM255525   5.079   7.668   6.310  3.3317  0.9722  0.5427
18602THY    HM355526   5.016   7.514   6.267  1.2630 -1.9219  1.7849
18602THY    CA655527   4.912   7.504   6.506 -0.0034  0.1756 -0.0194
18602THY    HA655528   4.854   7.455   6.429 -1.1071  0.8298  0.2223
18603THY      O55529   3.406   6.211   1.960  0.1703 -0.4087 -0.0358
18603THY     HO55530   3.345   6.136   1.974  0.4251  0.8045 -0.0292
18603THY    CA155531   3.534   6.169   1.942  0.0485  0.2165  1.5294
18603THY    CA255532   3.644   6.250   1.927  0.0080  0.7027  0.6192
18603THY    CP155533   3.636   6.405   1.917 -0.2416  0.1523  0.7910
18603THY    HP155534   3.540   6.425   1.965 -1.6342 -1.2799 -1.9192
18603THY    CP255535   3.627   6.450   1.764  0.3734 -1.0058  0.6148
18603THY    HP255536   3.562   6.384   1.706  0.8642 -2.6624  1.5331
18603THY    HP355537   3.728   6.433   1.723  1.0593  0.1835  1.6023
18603THY    HP455538   3.599   6.555   1.755 -1.0242  1.2126  0.4857
18603THY    CP355539   3.739   6.485   1.994 -0.0366  0.9018 -0.4650
18603THY    HP555540   3.731   6.459   2.100  2.7645  1.3238  0.0717
18603THY    HP655541   3.728   6.593   1.979  0.9207  1.4945 -0.2730
18603THY    HP755542   3.837   6.458   1.952 -0.5350 -0.5656 -0.1221
18603THY    CA355543   3.777   6.196   1.928 -0.6058 -0.6502  0.4339
18603THY    HA355544   3.865   6.259   1.918 -0.8818 -2.1361  0.6300
18603THY    CA455545   3.783   6.053   1.933  0.4989  0.0096  0.0473
18603THY    HA455546   3.884   6.011   1.932  1.1397 -0.2958  1.5206
18603THY    CA555547   3.672   5.974   1.944 -0.2211 -0.4077 -0.4249
18603THY    CM155548   3.686   5.824   1.949  0.2736  0.4739 -0.3177
18603THY    HM155549   3.789   5.796   1.972  1.1889 -1.5441  1.1705
18603THY    HM255550   3.673   5.779   1.849  2.2626  0.5273 -1.0962
18603THY    HM355551   3.621   5.773   2.021 -3.1072 -2.5666 -0.7805
18603THY    CA655552   3.547   6.028   1.953  0.2401  0.3440 -0.1305
18603THY    HA655553   3.457   5.968   1.960 -0.1273 -1.7067  0.1228
18604THY      O55554   6.484   3.382   6.740 -0.2851  0.1746 -0.3920
18604THY     HO55555   6.547   3.313   6.766  1.4839 -0.6140  0.8369
18604THY    CA155556   6.541   3.429   6.626 -0.0946  0.2207 -0.0960
18604THY    CA255557   6.514   3.564   6.586 -0.7138 -0.4588 -0.0732
18604THY    CP155558   6.406   3.644   6.662 -0.3182  0.2371  0.0969
18604THY    HP155559   6.331   3.572   6.697  0.2089  1.1382 -0.0329
18604THY    CP255560   6.337   3.748   6.569  0.4922 -0.3287  1.2379
18604THY    HP255561   6.407   3.830   6.546  3.4665  1.0335 -0.7545
18604THY    HP355562   6.252   3.785   6.628  0.8660 -0.3717  2.1918
18604THY    HP455563   6.288   3.700   6.484 -2.3790  1.5455  0.5538
18604THY    CP355564   6.482   3.722   6.782  0.8990  0.1367 -0.2227
18604THY    HP555565   6.550   3.653   6.834  1.9698 -0.2501  0.5202
18604THY    HP655566   6.407   3.764   6.849  3.3782  2.1804  1.1930
18604THY    HP755567   6.531   3.809   6.737 -1.5168  0.4390  1.4033
18604THY    CA355568   6.574   3.613   6.473  0.7927 -0.2427  0.0666
18604THY    HA355569   6.561   3.714   6.437  2.3651 -0.3129  0.2751
18604THY    CA455570   6.674   3.531   6.409 -0.8589  0.0317  0.0127
18604THY    HA455571   6.735   3.564   6.326 -0.1303 -0.0569 -1.5242
18604THY    CA555572   6.706   3.402   6.448  0.4357  0.4365 -0.5367
18604THY    CM155573   6.807   3.326   6.369  0.1708 -0.3999  0.1434
18604THY    HM155574   6.794   3.347   6.262 -0.4466 -0.4442 -0.4244
18604THY    HM255575   6.775   3.222   6.367 -1.2335 -0.4879  0.5515
18604THY    HM355576   6.911   3.335   6.400  0.8386 -2.2070 -0.9077
18604THY    CA655577   6.637   3.351   6.554  0.6223  0.1562  0.5204
18604THY    HA655578   6.650   3.246   6.579  0.5990 -2.1377 -0.0827
18605THY      O55579   8.358   7.410   6.907 -0.0850  0.4038  0.0925
18605THY     HO55580   8.262   7.426   6.907  0.0792 -1.3960  1.3435
18605THY    CA155581   8.400   7.478   7.012 -0.4361  0.9621 -0.3774
18605THY    CA255582   8.540   7.495   7.042  0.7716 -0.4597  1.1695
18605THY    CP155583   8.645   7.417   6.960  0.2413 -0.4044 -0.5603
18605THY    HP155584   8.598   7.363   6.877 -0.3790  0.8618 -2.0442
18605THY    CP255585   8.714   7.306   7.027 -0.2395  0.5096 -0.3057
18605THY    HP255586   8.768   7.247   6.952  0.3651  0.1443  0.6806
18605THY    HP355587   8.653   7.239   7.090 -1.0784 -0.7421 -0.7562
18605THY    HP455588   8.793   7.346   7.092  2.3630 -2.1332 -0.8098
18605THY    CP355589   8.748   7.514   6.900 -0.5543  0.0999  0.0430
18605THY    HP555590   8.693   7.592   6.845  1.9302  1.8144  3.2654
18605THY    HP655591   8.823   7.471   6.832 -1.7048 -0.7706 -0.6459
18605THY    HP755592   8.795   7.578   6.975 -0.8137  0.1604  0.1627
18605THY    CA355593   8.572   7.572   7.154 -0.4628 -0.1457 -0.1918
18605THY    HA355594   8.676   7.585   7.181 -0.5069  0.2230 -0.5823
18605THY    CA455595   8.476   7.630   7.233  0.5656  0.2614  0.1736
18605THY    HA455596   8.509   7.699   7.310 -0.5586 -0.1333  1.1947
18605THY    CA555597   8.336   7.602   7.210 -0.4034 -0.0901  0.6974
18605THY    CM155598   8.233   7.647   7.314  0.6584 -0.2506 -0.3060
18605THY    HM155599   8.185   7.565   7.369 -1.0336  0.4121  1.0803
18605THY    HM255600   8.159   7.718   7.274  0.2186  2.7403  1.0482
18605THY    HM355601   8.288   7.700   7.393  0.3235  0.5408 -1.1148
18605THY    CA655602   8.303   7.522   7.093  0.8637 -0.3832 -0.2262
18605THY    HA655603   8.201   7.489   7.081  0.4934  1.4315  0.1192
18606THY      O55604   6.928   3.610   1.772  0.3382  0.0542 -0.4467
18606THY     HO55605   6.981   3.619   1.692 -2.7415 -1.9323  3.8415
18606THY    CA155606   7.015   3.585   1.876  0.4762 -0.6816 -0.4306
18606THY    CA255607   6.996   3.630   2.014 -1.1600  0.5750 -0.1205
18606THY    CP155608   6.871   3.701   2.059  0.2090 -0.6018 -0.0789
18606THY    HP155609   6.831   3.758   1.975 -1.5358 -1.3989 -2.3613
18606THY    CP255610   6.894   3.802   2.169 -0.2360 -0.0363  0.1618
18606THY    HP255611   6.802   3.862   2.181  0.1060 -0.1312  0.7142
18606THY    HP355612   6.976   3.861   2.126 -0.2400 -0.5447 -0.1974
18606THY    HP455613   6.931   3.759   2.262  1.2546 -0.0152  1.4062
18606THY    CP355614   6.774   3.600   2.114 -0.1540  0.3951 -0.3686
18606THY    HP555615   6.820   3.547   2.198  0.1615  0.2159 -0.3865
18606THY    HP655616   6.738   3.524   2.044 -0.0946 -0.0747  0.0295
18606THY    HP755617   6.688   3.656   2.153 -0.0792 -0.7879  0.6250
18606THY    CA355618   7.102   3.603   2.104 -0.3733  0.3631  0.1543
18606THY    HA355619   7.099   3.637   2.207  0.6664  0.0641  1.1879
18606THY    CA455620   7.218   3.531   2.062  0.6915  0.6705  0.3043
18606THY    HA455621   7.305   3.509   2.123  0.4503  1.2314  0.8760
18606THY    CA555622   7.226   3.482   1.933 -0.1500  0.0948  0.2043
18606THY    CM155623   7.335   3.393   1.892 -1.0580  1.0538 -0.0096
18606THY    HM155624   7.385   3.429   1.801 -1.4770  0.2792 -1.2994
18606THY    HM255625   7.293   3.296   1.864  1.8389 -2.9719 -0.3813
18606THY    HM355626   7.413   3.377   1.967 -2.1389  2.0723 -0.6195
18606THY    CA655627   7.132   3.518   1.844  0.3705  0.2009 -0.8846
18606THY    HA655628   7.139   3.488   1.740  0.5207  0.0767 -0.4223
18607THY      O55629   3.453   7.874   6.656  0.2437 -0.2823 -0.2790
18607THY     HO55630   3.378   7.933   6.678  1.0540 -1.5627  1.3233
18607THY    CA155631   3.419   7.818   6.538  0.0610 -0.2662  0.1188
18607THY    CA255632   3.520   7.758   6.454  0.2339  0.0124  0.5086
18607THY    CP155633   3.670   7.762   6.488  0.4414  0.0355  0.7048
18607THY    HP155634   3.679   7.760   6.597  3.1914 -0.1159  1.3037
18607THY    CP255635   3.731   7.890   6.437  0.0231  0.3084 -0.4671
18607THY    HP255636   3.830   7.909   6.481  0.7904 -2.1672  2.1394
18607THY    HP355637   3.665   7.976   6.454  0.6326 -1.6683  0.4644
18607THY    HP455638   3.751   7.885   6.329  1.8893  0.4562  1.8047
18607THY    CP355639   3.751   7.636   6.445 -0.0421  0.4719 -0.3062
18607THY    HP555640   3.756   7.620   6.337 -0.1854  0.4029  0.0888
18607THY    HP655641   3.720   7.547   6.500 -1.0289 -0.6328 -0.6688
18607THY    HP755642   3.857   7.652   6.468 -0.0596  0.6114 -0.3973
18607THY    CA355643   3.480   7.710   6.327 -0.3902  0.1397 -0.4794
18607THY    HA355644   3.550   7.684   6.248  0.4419  0.7293 -0.0957
18607THY    CA455645   3.344   7.709   6.293 -0.9898  0.0210  0.0198
18607THY    HA455646   3.310   7.677   6.195 -0.4957 -0.4833  0.9840
18607THY    CA555647   3.246   7.770   6.374 -0.2968 -0.9341 -0.1452
18607THY    CM155648   3.105   7.785   6.318  0.3586  0.6125 -0.1374
18607THY    HM155649   3.088   7.706   6.244  1.7543  0.0284  0.0648
18607THY    HM255650   3.099   7.881   6.264 -0.8210 -1.0099 -1.0784
18607THY    HM355651   3.034   7.782   6.401 -2.2765 -1.5100 -3.1551
18607THY    CA655652   3.289   7.825   6.494  0.2705  0.2122  0.5545
18607THY    HA655653   3.220   7.882   6.556  0.0948 -0.7223  1.3968
18608THY      O55654   0.263   6.925   4.624  0.0626 -0.2031 -0.1626
18608THY     HO55655   0.297   6.875   4.700 -0.9804  1.3691  1.3791
18608THY    CA155656   0.375   6.964   4.562  0.4863 -0.3495 -0.5311
18608THY    CA255657   0.364   7.049   4.450  0.6680 -0.0858  0.6216
18608THY    CP155658   0.230   7.114   4.412  0.4092 -0.0885 -0.1289
18608THY    HP155659   0.167   7.129   4.501 -2.3334 -1.5507 -2.2131
18608THY    CP255660   0.144   7.020   4.324  0.0777  0.4174 -0.3304
18608THY    HP255661   0.044   7.063   4.315  0.4849  2.2130  1.1193
18608THY    HP355662   0.116   6.926   4.374  0.0815  0.9647 -0.0432
18608THY    HP455663   0.186   7.000   4.224 -0.7359 -0.6412  2.6731
18608THY    CP355664   0.245   7.249   4.352 -0.2097  0.0020 -0.2987
18608THY    HP555665   0.141   7.281   4.349 -1.8155  1.7509 -4.5963
18608THY    HP655666   0.286   7.241   4.250  1.6741  0.5104  1.7246
18608THY    HP755667   0.305   7.310   4.421 -0.1791 -0.3159  0.0383
18608THY    CA355668   0.486   7.107   4.397 -0.6180 -0.1989 -0.2965
18608THY    HA355669   0.474   7.179   4.317 -2.1555 -2.3832 -2.7652
18608THY    CA455670   0.612   7.071   4.448 -0.4253  0.2311  0.2128
18608THY    HA455671   0.698   7.121   4.405  2.4953  1.8054 -3.0435
18608THY    CA555672   0.615   6.982   4.555  0.4337  0.0888 -0.2194
18608THY    CM155673   0.746   6.937   4.614 -0.1735  0.6349  0.2801
18608THY    HM155674   0.821   7.017   4.605 -0.7907 -0.1777  0.7823
18608THY    HM255675   0.797   6.868   4.547  2.0969 -1.4731  3.6702
18608THY    HM355676   0.756   6.903   4.718  1.2646 -0.1817 -2.0431
18608THY    CA655677   0.499   6.929   4.614 -0.7914  0.5448  0.5759
18608THY    HA655678   0.499   6.863   4.700 -0.2391 -0.6556 -1.0318
18609THY      O55679   7.397   5.984   5.412 -0.0372  0.0053 -0.0527
18609THY     HO55680   7.388   6.019   5.502 -0.8603  1.1263 -2.8638
18609THY    CA155681   7.458   6.067   5.330  0.1302  0.4786 -0.7608
18609THY    CA255682   7.481   6.034   5.196 -0.4064  0.3237 -0.2024
18609THY    CP155683   7.444   5.896   5.145  0.3381  0.3161 -0.3651
18609THY    HP155684   7.359   5.855   5.201  0.5389 -0.2602 -1.6247
18609THY    CP255685   7.566   5.805   5.152 -0.4303  0.1628  0.3856
18609THY    HP255686   7.650   5.865   5.114 -1.6512 -3.4037  0.0497
18609THY    HP355687   7.560   5.706   5.106 -2.7204 -0.3320  0.7137
18609THY    HP455688   7.591   5.787   5.257  1.7468 -0.5710 -1.3862
18609THY    CP355689   7.387   5.891   4.998 -0.0246 -0.0064 -0.3003
18609THY    HP555690   7.326   5.803   4.972 -1.5516 -0.0168  0.7305
18609THY    HP655691   7.465   5.895   4.921 -0.1364 -0.1425 -0.7038
18609THY    HP755692   7.309   5.968   4.994 -0.9567  0.1158 -1.2081
18609THY    CA355693   7.544   6.127   5.112  0.2709  0.7565 -0.7628
18609THY    HA355694   7.563   6.115   5.006  1.3189  0.7536  0.6645
18609THY    CA455695   7.575   6.257   5.166 -0.3222  0.1378 -0.0151
18609THY    HA455696   7.633   6.338   5.122  0.5166  2.1774  0.5557
18609THY    CA555697   7.558   6.286   5.297  0.1945  0.0074  0.6072
18609THY    CM155698   7.616   6.416   5.353  0.4900 -0.9281  0.0404
18609THY    HM155699   7.607   6.410   5.462 -0.1039 -1.0456 -2.4018
18609THY    HM255700   7.578   6.503   5.299 -0.0311 -1.0551 -0.2596
18609THY    HM355701   7.725   6.409   5.340  0.3249 -1.8916 -1.1694
18609THY    CA655702   7.500   6.192   5.383 -0.0346 -0.1242  0.3154
18609THY    HA655703   7.474   6.226   5.483 -0.5823 -1.0995  2.9578
18610THY      O55704   1.103   0.987   5.535  0.0669 -0.2309 -0.2115
18610THY     HO55705   1.028   0.924   5.535 -0.2483  3.7866 -0.1054
18610THY    CA155706   1.031   1.103   5.520  0.0815 -0.2766 -0.1592
18610THY    CA255707   1.080   1.223   5.572  0.2939 -0.1217 -0.2150
18610THY    CP155708   1.230   1.224   5.618 -0.3517 -0.2047 -0.5715
18610THY    HP155709   1.287   1.139   5.579  1.4147  0.4977  0.2395
18610THY    CP255710   1.244   1.225   5.771  0.5866 -0.1199  0.4262
18610THY    HP255711   1.350   1.215   5.796  0.6931 -0.8368 -0.3213
18610THY    HP355712   1.186   1.143   5.816  0.6852 -0.8070 -0.0271
18610THY    HP455713   1.197   1.318   5.804 -0.3353  0.1631 -0.1155
18610THY    CP355714   1.294   1.349   5.558  0.5417  0.6889  1.1376
18610THY    HP555715   1.403   1.355   5.567  0.5735  1.9257 -0.4904
18610THY    HP655716   1.256   1.434   5.616 -0.8932  1.4994 -0.0175
18610THY    HP755717   1.255   1.361   5.456  1.9577  0.0202  0.3616
18610THY    CA355718   1.001   1.343   5.566 -0.6949  0.2253  0.7194
18610THY    HA355719   1.046   1.440   5.589 -0.6156  1.4402  0.4187
18610THY    CA455720   0.874   1.333   5.505  0.0690  0.3874  0.2649
18610THY    HA455721   0.805   1.416   5.497 -0.4142  1.9891  0.0608
18610THY    CA555722   0.820   1.211   5.457 -0.1546  0.2454 -0.7255
18610THY    CM155723   0.688   1.219   5.385 -0.4826  0.2697  0.5289
18610THY    HM155724   0.618   1.154   5.438  0.5719  1.4027  0.2905
18610THY    HM255725   0.706   1.187   5.281 -1.4680 -0.2844  1.6783
18610THY    HM355726   0.644   1.319   5.373 -0.7695  1.8739  0.6073
18610THY    CA655727   0.903   1.098   5.471  0.4993 -0.1492  0.2930
18610THY    HA655728   0.872   1.000   5.435  2.4135  0.9344 -0.7752
18611THY      O55729   1.754   8.898   3.229 -0.0372  0.1546 -0.1127
18611THY     HO55730   1.734   8.839   3.304 -0.8439 -0.5960 -0.8025
18611THY    CA155731   1.652   8.980   3.241 -0.7520  0.5352 -0.2999
18611THY    CA255732   1.666   9.111   3.195 -0.6718  0.1383 -0.0738
18611THY    CP155733   1.783   9.148   3.101 -0.5409 -0.1002 -0.3203
18611THY    HP155734   1.873   9.098   3.138 -0.1020 -1.6617 -0.7114
18611THY    CP255735   1.812   9.296   3.107 -0.0821 -0.6066  0.2439
18611THY    HP255736   1.792   9.341   3.205  2.4599 -0.0293  0.2560
18611THY    HP355737   1.761   9.347   3.024 -2.8025  0.4117 -0.6716
18611THY    HP455738   1.919   9.312   3.090 -0.2287 -1.6356  0.2272
18611THY    CP355739   1.764   9.097   2.954 -0.2120 -0.7797 -0.2748
18611THY    HP555740   1.680   9.161   2.924 -0.4141  1.7156  0.7759
18611THY    HP655741   1.731   8.993   2.951  0.2910  1.5937 -0.5748
18611THY    HP755742   1.853   9.117   2.894  1.7819  1.6892 -1.1537
18611THY    CA355743   1.554   9.197   3.201  0.0321  1.0330  0.2226
18611THY    HA355744   1.553   9.293   3.151  1.4832 -1.2620 -0.8479
18611THY    CA455745   1.439   9.163   3.276 -0.5753  0.2557 -0.2899
18611THY    HA455746   1.361   9.238   3.284  0.2924  1.5309  0.5073
18611THY    CA555747   1.432   9.038   3.339 -0.3191  0.6198 -0.7373
18611THY    CM155748   1.307   8.998   3.413 -0.1377 -0.3056  0.1605
18611THY    HM155749   1.227   8.962   3.347 -0.4628  1.4128 -2.5980
18611THY    HM255750   1.272   9.084   3.471 -1.2325  0.9542 -1.0801
18611THY    HM355751   1.329   8.926   3.493  0.7579  3.1533  3.8459
18611THY    CA655752   1.540   8.942   3.314 -0.5280 -0.3995 -0.4554
18611THY    HA655753   1.535   8.839   3.347  1.4995  0.0526 -0.4417
18612THY      O55754   1.326   6.773   5.643  0.5303  0.0026 -0.3529
18612THY     HO55755   1.367   6.709   5.704 -1.7522  0.9299 -1.0335
18612THY    CA155756   1.409   6.876   5.617 -0.7448  0.4630 -0.5322
18612THY    CA255757   1.367   6.997   5.558 -0.0241  0.0233 -0.4573
18612THY    CP155758   1.224   7.010   5.518 -0.3515 -0.7102  0.2021
18612THY    HP155759   1.163   6.922   5.537  0.7489 -0.4793 -0.5313
18612THY    CP255760   1.201   7.026   5.362 -0.2415 -0.0837 -0.3466
18612THY    HP255761   1.240   7.123   5.329  0.5947 -0.8545 -0.9283
18612THY    HP355762   1.095   7.023   5.334 -0.4002  0.5880 -1.5984
18612THY    HP455763   1.251   6.948   5.303 -0.7502 -0.7214 -0.2035
18612THY    CP355764   1.162   7.130   5.592  0.6775 -0.3071 -0.1926
18612THY    HP555765   1.052   7.128   5.597  0.6002  1.0154  2.4137
18612THY    HP655766   1.189   7.230   5.557  1.5129  0.5200 -0.1096
18612THY    HP755767   1.183   7.121   5.700 -1.2515  0.1578  0.2368
18612THY    CA355768   1.464   7.098   5.543 -0.4660  0.2907  0.4794
18612THY    HA355769   1.443   7.190   5.490  2.2544  0.0867  1.0697
18612THY    CA455770   1.593   7.080   5.593  0.0257 -0.2244  0.2818
18612THY    HA455771   1.663   7.163   5.589 -2.7834  0.7139  2.8791
18612THY    CA555772   1.628   6.963   5.659  0.4871 -0.2324  0.2856
18612THY    CM155773   1.759   6.950   5.734  0.0127 -0.8879  0.2429
18612THY    HM155774   1.798   7.052   5.740 -1.5263 -0.4280  0.8357
18612THY    HM255775   1.823   6.888   5.671 -0.6008 -1.6370  0.3668
18612THY    HM355776   1.754   6.907   5.835 -0.1550 -1.1414 -0.3458
18612THY    CA655777   1.540   6.865   5.673  0.6641  0.3853  0.1003
18612THY    HA655778   1.561   6.773   5.726  0.2428 -0.5307 -0.5344
18613THY      O55779   4.044   3.953   5.316  0.8698  0.0815  0.2216
18613THY     HO55780   4.119   3.992   5.364  2.6992 -2.6424  0.3302
18613THY    CA155781   3.990   3.861   5.394  0.0385 -0.1295 -0.5838
18613THY    CA255782   3.871   3.785   5.372  0.1490  0.2592  0.1755
18613THY    CP155783   3.771   3.822   5.254  0.0648 -0.0431  0.0730
18613THY    HP155784   3.810   3.906   5.195 -3.5701  1.0526  2.8290
18613THY    CP255785   3.650   3.888   5.320 -0.3808 -0.9969  0.7246
18613THY    HP255786   3.589   3.814   5.372 -0.1496 -0.2902  1.0231
18613THY    HP355787   3.587   3.932   5.242 -0.0502 -1.7732 -0.1492
18613THY    HP455788   3.681   3.972   5.384  1.0284 -1.4454  0.5885
18613THY    CP355789   3.721   3.705   5.166  0.3805  0.6083 -0.2393
18613THY    HP555790   3.670   3.627   5.224  1.9700  0.6306 -1.3118
18613THY    HP655791   3.806   3.666   5.109  1.4047  1.6124  0.4618
18613THY    HP755792   3.648   3.748   5.097  1.4210 -0.0888  0.4623
18613THY    CA355793   3.837   3.682   5.460 -0.6450 -0.4739 -0.1784
18613THY    HA355794   3.739   3.638   5.451 -0.5348 -0.1612 -0.4927
18613THY    CA455795   3.915   3.661   5.568 -0.2204 -0.6389  0.3426
18613THY    HA455796   3.892   3.587   5.645 -1.0900  0.9815  2.1913
18613THY    CA555797   4.030   3.737   5.593  0.2638  0.0969 -0.5770
18613THY    CM155798   4.108   3.719   5.721 -0.1239  0.2038 -0.2179
18613THY    HM155799   4.134   3.614   5.740  0.1889 -0.1667 -0.2102
18613THY    HM255800   4.051   3.760   5.805 -0.3952 -0.4321  0.7388
18613THY    HM355801   4.201   3.776   5.714 -0.9616 -0.9654  1.0732
18613THY    CA655802   4.072   3.832   5.504  0.2484 -0.2272 -0.4600
18613THY    HA655803   4.161   3.890   5.528  0.2027 -1.9455  0.3740
18614THY      O55804   2.452   7.437   3.642  0.6129 -0.0864 -0.3962
18614THY     HO55805   2.390   7.457   3.570  0.1227  0.8117  1.5959
18614THY    CA155806   2.469   7.551   3.716 -0.3458 -0.6391 -0.7031
18614THY    CA255807   2.563   7.556   3.821  0.7944 -0.3469 -0.1044
18614THY    CP155808   2.653   7.435   3.854  0.1704 -0.3046  0.5031
18614THY    HP155809   2.633   7.361   3.777 -1.3141  0.4194  0.1199
18614THY    CP255810   2.639   7.383   3.999 -0.2181  0.2074  0.1976
18614THY    HP255811   2.536   7.359   4.028  0.6994  2.4390 -1.3236
18614THY    HP355812   2.687   7.453   4.068 -1.9497 -0.5525  2.2417
18614THY    HP455813   2.694   7.289   4.012 -1.1759 -0.7721 -0.5270
18614THY    CP355814   2.798   7.467   3.825  0.3576  0.0298  0.4230
18614THY    HP555815   2.862   7.379   3.837 -2.3486  0.3615 -1.6423
18614THY    HP655816   2.835   7.555   3.879 -3.7213 -0.6614  2.7836
18614THY    HP755817   2.804   7.496   3.720  0.1181 -0.3389 -0.7838
18614THY    CA355818   2.561   7.670   3.910  0.0590  0.1909  0.6064
18614THY    HA355819   2.632   7.687   3.990  0.6473  0.0449 -1.0213
18614THY    CA455820   2.471   7.776   3.887  0.2263 -0.0850 -0.0905
18614THY    HA455821   2.474   7.862   3.953  0.6244  1.4631 -1.2434
18614THY    CA555822   2.380   7.777   3.785  0.1505  0.5226  0.3739
18614THY    CM155823   2.268   7.876   3.769 -0.6303  0.0267  0.4680
18614THY    HM155824   2.231   7.894   3.871  1.5180  0.6438  1.7715
18614THY    HM255825   2.179   7.836   3.720 -0.4186  2.0191 -2.8289
18614THY    HM355826   2.308   7.967   3.723  1.9004  1.1879  0.0303
18614THY    CA655827   2.377   7.660   3.700 -0.4504 -0.4528 -0.5111
18614THY    HA655828   2.303   7.646   3.622  0.2002 -0.9476 -1.2625
18615THY      O55829   4.316   2.718   5.216 -0.1578 -0.6562 -0.2655
18615THY     HO55830   4.231   2.702   5.260 -1.0640 -2.4140 -0.4838
18615THY    CA155831   4.337   2.604   5.142 -0.0009  0.1032  0.1706
18615THY    CA255832   4.456   2.537   5.129 -0.7000 -0.6393 -0.2259
18615THY    CP155833   4.589   2.603   5.181 -0.1795  0.1290  0.0573
18615THY    HP155834   4.560   2.704   5.212 -2.7518 -0.1628 -0.5483
18615THY    CP255835   4.695   2.607   5.063 -0.0144 -0.1020  0.6007
18615THY    HP255836   4.723   2.503   5.042 -2.0186  1.6442 -0.3865
18615THY    HP355837   4.778   2.669   5.098  0.7963 -1.1939  0.1418
18615THY    HP455838   4.639   2.652   4.981 -2.0958  1.9337  1.9907
18615THY    CP355839   4.647   2.535   5.310  0.3133  0.0411 -0.8023
18615THY    HP555840   4.670   2.431   5.286 -1.7108 -1.9658 -0.8596
18615THY    HP655841   4.584   2.528   5.399 -1.2062 -0.8767  0.5677
18615THY    HP755842   4.738   2.589   5.340 -1.4771  0.0118  2.4896
18615THY    CA355843   4.455   2.406   5.070 -0.1468  0.1511 -0.6748
18615THY    HA355844   4.544   2.349   5.044 -0.3414  1.8291 -1.8514
18615THY    CA455845   4.338   2.350   5.024 -0.0636 -0.1295  0.5870
18615THY    HA455846   4.331   2.262   4.960 -0.7602 -2.1667  2.0504
18615THY    CA555847   4.220   2.421   5.039  0.1256  0.0285  0.9931
18615THY    CM155848   4.088   2.373   4.986  0.2992 -0.5536  0.5481
18615THY    HM155849   4.096   2.369   4.877  1.0913 -0.4866 -0.0424
18615THY    HM255850   4.002   2.439   5.003  0.0348  0.7067 -0.0934
18615THY    HM355851   4.071   2.272   5.024 -2.1482  0.2012  1.1783
18615THY    CA655852   4.220   2.546   5.100  0.4906  0.1074 -0.5136
18615THY    HA655853   4.123   2.591   5.121  0.6723  0.9112 -0.4786
18616THY      O55854   0.462   3.785   5.145 -0.5185  0.4132 -0.6320
18616THY     HO55855   0.400   3.790   5.070  1.9197 -1.7866 -1.1143
18616THY    CA155856   0.498   3.649   5.153 -0.5376 -0.0622 -0.2787
18616THY    CA255857   0.533   3.583   5.274 -0.4066 -1.0833 -0.0360
18616THY    CP155858   0.560   3.668   5.400  0.1657  0.5317 -0.0448
18616THY    HP155859   0.582   3.769   5.362  3.7015  0.3993 -0.7456
18616THY    CP255860   0.678   3.617   5.478 -0.0496 -0.2977  0.5556
18616THY    HP255861   0.644   3.536   5.544 -1.7335  0.4461  1.8019
18616THY    HP355862   0.737   3.694   5.529 -0.3049  0.6387  0.1495
18616THY    HP455863   0.752   3.582   5.405  1.9993  1.7714  0.3540
18616THY    CP355864   0.441   3.682   5.494 -0.1787 -0.4161  0.0488
18616THY    HP555865   0.375   3.762   5.460 -0.2620  0.3002  0.2897
18616THY    HP655866   0.472   3.740   5.581  2.5071 -1.3042  0.1083
18616THY    HP755867   0.388   3.591   5.524  0.0064  0.2805  0.1639
18616THY    CA355868   0.552   3.443   5.283 -0.6660  0.3081 -0.3542
18616THY    HA355869   0.574   3.391   5.376 -0.4116  0.3114 -0.2423
18616THY    CA455870   0.555   3.366   5.162 -0.1988 -0.0987  0.0418
18616THY    HA455871   0.585   3.261   5.168  0.5194 -1.3882  0.1543
18616THY    CA555872   0.538   3.439   5.038 -0.1849 -0.8444  0.5899
18616THY    CM155873   0.544   3.363   4.913  0.5543  0.6678  0.1106
18616THY    HM155874   0.470   3.282   4.914  2.3006 -1.8365 -1.6676
18616THY    HM255875   0.644   3.320   4.902  0.4508  0.7924 -0.1654
18616THY    HM355876   0.516   3.430   4.830  1.5459 -1.6457 -2.1602
18616THY    CA655877   0.503   3.573   5.038 -0.1300 -0.3458  0.1597
18616THY    HA655878   0.481   3.620   4.942 -0.7618 -0.1359  0.3030
18617THY      O55879   3.169   6.504   3.941 -0.2057  0.6407 -0.1419
18617THY     HO55880   3.164   6.542   3.852 -0.7621 -0.2036 -2.0993
18617THY    CA155881   3.282   6.425   3.931 -0.2195  0.1475 -0.0082
18617THY    CA255882   3.309   6.336   4.034  0.0710  0.1736 -0.7299
18617THY    CP155883   3.221   6.335   4.159  0.4021  0.1623  0.3515
18617THY    HP155884   3.183   6.437   4.171 -1.4232 -0.3375 -0.2320
18617THY    CP255885   3.290   6.294   4.287 -0.0011 -0.2811  0.0527
18617THY    HP255886   3.396   6.319   4.293  0.6451  0.2415 -2.5360
18617THY    HP355887   3.298   6.184   4.284  0.5780 -0.7531  0.0976
18617THY    HP455888   3.231   6.320   4.375 -0.6042 -0.6662  0.0234
18617THY    CP355889   3.095   6.239   4.152  0.5220  0.6185 -0.0124
18617THY    HP555890   3.131   6.137   4.133 -2.4124 -1.6398 -0.7745
18617THY    HP655891   3.021   6.275   4.079 -0.0034  1.4057  0.5499
18617THY    HP755892   3.042   6.239   4.247 -0.7006 -0.0075  1.6730
18617THY    CA355893   3.404   6.241   4.014 -0.3776 -0.2983  0.0495
18617THY    HA355894   3.413   6.167   4.093 -2.1237 -1.5302 -1.5559
18617THY    CA455895   3.475   6.229   3.891  0.2540 -0.5508 -0.0499
18617THY    HA455896   3.543   6.146   3.872  1.1330 -0.1555  0.5530
18617THY    CA555897   3.441   6.314   3.790 -0.5475  0.4892  0.2305
18617THY    CM155898   3.493   6.290   3.648  0.0534 -0.2131 -0.0119
18617THY    HM155899   3.470   6.186   3.621  0.5828  3.4528 -1.2211
18617THY    HM255900   3.600   6.310   3.637 -0.4972 -2.2463  2.2891
18617THY    HM355901   3.450   6.349   3.567 -0.2396  0.4635  0.7188
18617THY    CA655902   3.350   6.424   3.813  0.3498  0.1253  0.6105
18617THY    HA655903   3.326   6.493   3.732  0.1317 -0.3604 -0.0200
18618THY      O55904   1.981   6.297   6.735 -0.1239  0.4128 -0.4386
18618THY     HO55905   1.975   6.290   6.639  1.6652  0.2547 -0.1685
18618THY    CA155906   1.917   6.409   6.773 -0.0432 -0.3404 -0.4124
18618THY    CA255907   1.941   6.470   6.898  0.7309 -0.5535  0.2766
18618THY    CP155908   2.042   6.413   6.997  0.1828  0.6222 -0.4565
18618THY    HP155909   2.066   6.311   6.965 -0.5493 -1.4703 -0.0194
18618THY    CP255910   1.980   6.399   7.137 -0.1098 -0.0558 -0.1401
18618THY    HP255911   1.902   6.324   7.121 -1.3877  1.4190  0.8226
18618THY    HP355912   1.924   6.488   7.166  0.5731  0.1247  0.2376
18618THY    HP455913   2.044   6.361   7.218 -0.4781  0.3119  0.0156
18618THY    CP355914   2.174   6.487   6.993 -0.2157  0.2224 -0.0335
18618THY    HP555915   2.209   6.502   6.890 -1.2023 -0.2139 -0.5821
18618THY    HP655916   2.247   6.417   7.034  0.2857  1.6731  1.3160
18618THY    HP755917   2.171   6.584   7.043  0.4591 -2.0258  1.2230
18618THY    CA355918   1.885   6.596   6.921 -0.9463  0.1371 -0.1492
18618THY    HA355919   1.900   6.654   7.011 -1.7304 -0.7026  1.3987
18618THY    CA455920   1.805   6.656   6.813 -0.1310 -0.9464 -0.4233
18618THY    HA455921   1.769   6.758   6.827  1.9239 -1.2272  0.3982
18618THY    CA555922   1.784   6.591   6.689  0.1352 -0.2001 -0.0943
18618THY    CM155923   1.698   6.646   6.586 -0.5837  0.2850 -0.5107
18618THY    HM155924   1.697   6.754   6.607  0.3522  1.0525 -0.6451
18618THY    HM255925   1.593   6.615   6.588 -2.0602 -1.2891  3.6723
18618THY    HM355926   1.731   6.622   6.484  0.6332  0.7948 -1.0734
18618THY    CA655927   1.839   6.471   6.675  0.3183  0.6395 -0.1963
18618THY    HA655928   1.827   6.402   6.592  0.4484  1.7339 -1.5837
18619THY      O55929   1.118   3.849   7.655  0.3479  0.0948  0.1418
18619THY     HO55930   1.045   3.865   7.592  1.2240 -0.7927  0.7858
18619THY    CA155931   1.094   3.934   7.757 -0.0556 -0.8706 -0.0597
18619THY    CA255932   1.183   3.974   7.854 -0.1242  0.6585  0.0414
18619THY    CP155933   1.328   3.930   7.842 -0.7565  0.1463 -0.1395
18619THY    HP155934   1.343   3.870   7.751  2.5235  0.4821 -0.0462
18619THY    CP255935   1.368   3.845   7.965 -0.1321  0.1723 -0.1602
18619THY    HP255936   1.462   3.789   7.956  0.0286  0.7386  0.0071
18619THY    HP355937   1.288   3.775   7.992  0.6252 -0.2387 -1.2175
18619THY    HP455938   1.387   3.909   8.052  0.1434  1.4879 -1.9187
18619THY    CP355939   1.421   4.053   7.829  0.3640  0.1326  0.0791
18619THY    HP555940   1.391   4.099   7.734 -0.1507 -0.7556 -1.9812
18619THY    HP655941   1.526   4.028   7.844  0.1078  0.6541 -0.7113
18619THY    HP755942   1.404   4.127   7.909 -0.9736  0.2100 -0.2805
18619THY    CA355943   1.142   4.054   7.965  0.6068  1.1910  0.3753
18619THY    HA355944   1.209   4.091   8.043  2.0868 -0.3809  1.1612
18619THY    CA455945   1.004   4.085   7.974 -0.3470 -0.0966  0.3943
18619THY    HA455946   0.950   4.136   8.053 -3.5500  0.8630 -3.9152
18619THY    CA555947   0.919   4.056   7.867 -0.1930  0.1270  0.3805
18619THY    CM155948   0.783   4.117   7.869  0.2598  0.2102 -0.5324
18619THY    HM155949   0.754   4.125   7.764  0.0639  0.1993 -1.3531
18619THY    HM255950   0.781   4.217   7.914 -2.7625 -0.0395 -0.3900
18619THY    HM355951   0.711   4.052   7.920 -0.2677 -0.1190 -0.2128
18619THY    CA655952   0.965   3.984   7.762  0.3153  0.5108  0.3298
18619THY    HA655953   0.897   3.958   7.681 -0.6679  1.4523 -0.1230
18620THY      O55954   1.770   4.296   5.805  0.5432  0.3579 -0.3608
18620THY     HO55955   1.725   4.342   5.878  1.8272  0.5550  0.6385
18620THY    CA155956   1.889   4.262   5.849 -0.1261  0.3876 -0.3929
18620THY    CA255957   1.994   4.218   5.766  0.9921  0.1610  0.0522
18620THY    CP155958   1.966   4.183   5.628 -0.6682  1.0096  0.5057
18620THY    HP155959   1.872   4.222   5.585  0.2745 -2.1441 -0.3880
18620THY    CP255960   1.962   4.026   5.611 -0.3098  0.5344 -0.6875
18620THY    HP255961   2.053   3.979   5.650 -0.3190 -0.7300 -1.8148
18620THY    HP355962   1.956   4.008   5.504 -0.2104  0.1559  1.2840
18620THY    HP455963   1.877   3.992   5.672  1.3004  2.9544 -0.6223
18620THY    CP355964   2.073   4.237   5.527  0.4673 -0.2743 -0.0805
18620THY    HP555965   2.080   4.346   5.537 -0.0981 -2.6946  0.2278
18620THY    HP655966   2.053   4.209   5.423 -1.3969  0.0513 -0.0742
18620THY    HP755967   2.176   4.202   5.545  0.4356  2.6142  1.0348
18620THY    CA355968   2.128   4.208   5.817 -0.1226  0.7932 -0.0063
18620THY    HA355969   2.206   4.172   5.751  0.3941  0.8410  0.9978
18620THY    CA455970   2.154   4.239   5.949 -0.1086  0.2515  0.2004
18620THY    HA455971   2.254   4.233   5.991  0.3309 -0.5752  1.5176
18620THY    CA555972   2.052   4.285   6.025  0.2935  0.8081  0.2270
18620THY    CM155973   2.076   4.339   6.157 -0.1307 -0.4937 -0.0702
18620THY    HM155974   1.985   4.355   6.216  0.7653  0.5237  1.5105
18620THY    HM255975   2.133   4.432   6.149  2.6670  0.6593 -1.5384
18620THY    HM355976   2.146   4.275   6.214 -0.1390  0.6423  0.9068
18620THY    CA655977   1.918   4.285   5.978 -0.5070  0.1407 -0.1721
18620THY    HA655978   1.845   4.333   6.042  1.4753  1.2846  1.4338
18621THY      O55979   3.366   7.944   7.019 -0.2777  0.0410  0.8244
18621THY     HO55980   3.438   7.909   6.965 -1.0209 -1.8690  2.0960
18621THY    CA155981   3.381   7.916   7.152  0.0159 -0.1553  0.4109
18621THY    CA255982   3.272   7.925   7.244 -0.5198  0.4614 -0.2776
18621THY    CP155983   3.133   7.977   7.196 -0.6224  0.7692 -0.5581
18621THY    HP155984   3.117   8.002   7.091 -0.6397  0.6836 -0.9306
18621THY    CP255985   3.091   8.103   7.258  0.2987 -0.2684 -0.7935
18621THY    HP255986   2.990   8.130   7.226  0.3926  0.7978  0.9537
18621THY    HP355987   3.157   8.184   7.221  0.1875 -1.1457 -1.0889
18621THY    HP455988   3.082   8.094   7.366 -1.2594 -0.3659 -0.6636
18621THY    CP355989   3.034   7.867   7.218 -0.0077  0.1765 -0.2334
18621THY    HP555990   3.074   7.786   7.156 -0.5022  0.9765 -1.1057
18621THY    HP655991   2.945   7.900   7.164  1.3530 -2.6919 -0.9208
18621THY    HP755992   3.023   7.833   7.322  0.0432  0.8870  1.7996
18621THY    CA355993   3.283   7.882   7.376 -0.0272 -0.4453 -0.0479
18621THY    HA355994   3.208   7.889   7.454 -0.3891 -0.8808  1.2574
18621THY    CA455995   3.414   7.838   7.419  0.1259  0.8019 -0.6904
18621THY    HA455996   3.443   7.821   7.522  0.4951  1.1293  1.6376
18621THY    CA555997   3.523   7.845   7.331  0.3063  0.1037 -0.1058
18621THY    CM155998   3.661   7.837   7.389 -0.1393 -0.0439 -0.4267
18621THY    HM155999   3.734   7.823   7.308  0.7902  0.6806  0.1236
18621THY    HM256000   3.667   7.748   7.453 -1.1177  3.3090  1.7469
18621THY    HM356001   3.693   7.921   7.451  2.8289 -0.0010 -1.4839
18621THY    CA656002   3.510   7.887   7.193  0.0840 -0.8336 -0.0757
18621THY    HA656003   3.599   7.891   7.131  0.4333 -0.4616 -1.4854
18622THY      O56004   0.464   0.488   5.865 -0.2242  0.6335 -0.4795
18622THY     HO56005   0.399   0.433   5.818 -1.6301 -1.5297  2.7249
18622THY    CA156006   0.544   0.539   5.760 -0.3445  0.3292 -0.5774
18622THY    CA256007   0.678   0.565   5.783 -0.3861  0.2436 -0.2573
18622THY    CP156008   0.737   0.548   5.923  0.3537  0.4276  0.1920
18622THY    HP156009   0.656   0.548   5.997 -0.3189 -0.2544  2.3884
18622THY    CP256010   0.839   0.661   5.972 -0.7615 -0.6286  0.1069
18622THY    HP256011   0.915   0.680   5.895 -0.2644  0.1207  1.2258
18622THY    HP356012   0.895   0.614   6.053 -0.0687 -1.8520 -1.2419
18622THY    HP456013   0.783   0.748   6.009  0.4661 -0.4436  0.8376
18622THY    CP356014   0.803   0.403   5.923  0.0560  0.7933  0.4339
18622THY    HP556015   0.735   0.330   5.877  2.0149 -1.2895 -0.1967
18622THY    HP656016   0.845   0.373   6.020  0.9630  0.2784  0.0145
18622THY    HP756017   0.879   0.398   5.845 -0.5519  0.2311 -0.3989
18622THY    CA356018   0.767   0.589   5.684  0.2951  0.3664 -0.4625
18622THY    HA356019   0.871   0.610   5.706  0.0205  0.9495  0.3163
18622THY    CA456020   0.714   0.605   5.557  0.1555  1.0214  0.2862
18622THY    HA456021   0.774   0.636   5.472 -0.7723  0.9326  1.9572
18622THY    CA556022   0.579   0.573   5.526 -0.9004  0.7477  0.0274
18622THY    CM156023   0.529   0.567   5.381 -0.1131  0.1634  0.4996
18622THY    HM156024   0.446   0.637   5.369  0.0123 -1.3815  0.4063
18622THY    HM256025   0.484   0.468   5.363 -2.9146  1.2911  1.4506
18622THY    HM356026   0.612   0.579   5.311 -0.6755 -0.8359 -1.1490
18622THY    CA656027   0.495   0.537   5.630 -0.9558  0.7188 -0.3389
18622THY    HA656028   0.392   0.513   5.604 -0.5114 -2.7243  0.8884
18623THY      O56029   5.245   9.378   5.384  0.3364  0.4032 -0.4339
18623THY     HO56030   5.304   9.456   5.385  0.1067 -2.2892 -0.1056
18623THY    CA156031   5.273   9.313   5.271 -0.0374 -0.8656  0.9534
18623THY    CA256032   5.217   9.186   5.243 -0.0001 -0.0562 -0.2385
18623THY    CP156033   5.133   9.109   5.346 -0.1406 -0.1674  0.3111
18623THY    HP156034   5.187   9.132   5.439  0.5864 -1.1320  2.8992
18623THY    CP256035   5.121   8.953   5.328  0.3189 -0.2200 -0.9095
18623THY    HP256036   5.220   8.910   5.347  1.6940 -0.8300  1.8044
18623THY    HP356037   5.086   8.927   5.227  1.1115 -1.4348  2.2637
18623THY    HP456038   5.054   8.906   5.401  1.4995  1.3352 -0.2729
18623THY    CP356039   4.991   9.165   5.353 -0.0864  0.0506  0.4566
18623THY    HP556040   4.919   9.095   5.396 -2.2738 -0.2482  2.4234
18623THY    HP656041   4.948   9.187   5.254  0.3941 -0.5469 -1.1840
18623THY    HP756042   4.997   9.261   5.405  0.6580 -2.1182  1.6610
18623THY    CA356043   5.232   9.137   5.114  0.4454  0.3591 -0.7163
18623THY    HA356044   5.200   9.037   5.087  1.5905 -1.9517 -0.5274
18623THY    CA456045   5.312   9.206   5.023  0.0142  0.6158  0.7869
18623THY    HA456046   5.323   9.167   4.923  3.0216  0.8400  0.7999
18623THY    CA556047   5.358   9.331   5.056  0.0342  0.0450  0.2232
18623THY    CM156048   5.415   9.418   4.950  0.1198 -1.2098  0.2208
18623THY    HM156049   5.341   9.487   4.909  2.4790 -3.5944  1.4887
18623THY    HM256050   5.468   9.354   4.879  1.2556  2.2305 -3.0549
18623THY    HM356051   5.496   9.482   4.987 -0.1378 -0.2732  0.0312
18623THY    CA656052   5.335   9.388   5.177  0.2941 -0.7262 -0.3578
18623THY    HA656053   5.358   9.493   5.189  1.9348 -1.4944 -0.5903
18624THY      O56054   0.660   8.596   3.000 -0.1428 -0.3429 -0.2499
18624THY     HO56055   0.710   8.607   2.918  1.4743  0.8184  1.8081
18624THY    CA156056   0.684   8.462   3.027 -0.2375  0.2979 -0.0206
18624THY    CA256057   0.643   8.366   2.940  0.1913  0.4530  0.5368
18624THY    CP156058   0.561   8.399   2.809 -0.6570 -0.6060 -0.1089
18624THY    HP156059   0.547   8.506   2.790  2.5215 -0.8164  0.3776
18624THY    CP256060   0.412   8.358   2.818 -0.4815  0.6419 -0.0988
18624THY    HP256061   0.378   8.385   2.919  1.7088  1.8851 -1.7002
18624THY    HP356062   0.398   8.250   2.808 -0.4742 -0.4137 -0.0094
18624THY    HP456063   0.361   8.423   2.747 -1.9392  1.7481  0.0244
18624THY    CP356064   0.639   8.352   2.688 -0.4257 -0.3166  0.5593
18624THY    HP556065   0.659   8.245   2.675  1.3841  0.7823  0.7189
18624THY    HP656066   0.734   8.407   2.686 -1.1535 -0.5276  1.8458
18624THY    HP756067   0.596   8.405   2.601  1.5201 -1.4875  0.3036
18624THY    CA356068   0.674   8.227   2.966 -0.1894  0.4991  0.2147
18624THY    HA356069   0.669   8.148   2.891  3.3092 -1.5089  1.6855
18624THY    CA456070   0.742   8.197   3.083 -0.1363 -0.2749  0.1661
18624THY    HA456071   0.776   8.095   3.097  0.7541 -0.3230  0.4420
18624THY    CA556072   0.764   8.295   3.181 -0.1708 -0.4480  0.6853
18624THY    CM156073   0.820   8.253   3.311 -0.6975  0.2904 -0.3694
18624THY    HM156074   0.775   8.155   3.333  0.5309 -1.6801 -1.4370
18624THY    HM256075   0.785   8.324   3.387 -0.3484 -0.1261  0.2574
18624THY    HM356076   0.929   8.254   3.311 -0.7028  0.0713  0.4998
18624THY    CA656077   0.739   8.427   3.150 -0.0502  0.4814  0.5586
18624THY    HA656078   0.745   8.505   3.226 -0.9179 -0.1629  1.2731
18625THY      O56079   2.903   2.303   5.118  0.0025  0.0687  0.5989
18625THY     HO56080   2.895   2.334   5.026  1.3115 -0.2051  0.1777
18625THY    CA156081   3.005   2.370   5.181 -0.3122  0.9416  0.5969
18625THY    CA256082   3.032   2.367   5.319  0.1090 -0.6004  0.2633
18625THY    CP156083   2.943   2.282   5.403  0.0232 -0.3697  0.4730
18625THY    HP156084   2.847   2.304   5.354  0.7808 -2.7347 -1.1506
18625THY    CP256085   2.933   2.320   5.555 -0.0658  0.4885 -0.2539
18625THY    HP256086   2.855   2.254   5.596  1.6878  2.8675 -0.9943
18625THY    HP356087   2.910   2.424   5.580  0.9115 -0.0201  0.0955
18625THY    HP456088   3.026   2.293   5.607  0.5014  0.2283  1.1317
18625THY    CP356089   2.963   2.131   5.396 -0.6771  0.6345  0.1658
18625THY    HP556090   2.926   2.090   5.301 -1.2897  0.8332  0.2539
18625THY    HP656091   2.933   2.078   5.487 -2.8514  0.0767  0.3347
18625THY    HP756092   3.072   2.119   5.397 -0.7672 -0.9765 -1.1773
18625THY    CA356093   3.138   2.443   5.372  0.0650  0.4889 -0.6959
18625THY    HA356094   3.150   2.444   5.480 -2.8467  0.8953  0.8378
18625THY    CA456095   3.223   2.513   5.286  0.4590 -0.3083 -0.1566
18625THY    HA456096   3.307   2.568   5.327  0.3637  2.1220 -1.6383
18625THY    CA556097   3.204   2.514   5.152  0.6545  0.2226  0.6150
18625THY    CM156098   3.289   2.599   5.060 -0.5326 -0.4341  0.6947
18625THY    HM156099   3.325   2.689   5.111 -0.7657  2.1813 -0.6149
18625THY    HM256100   3.231   2.629   4.972 -0.5270 -2.3027 -3.8690
18625THY    HM356101   3.375   2.543   5.022 -1.2358 -3.6471  1.5917
18625THY    CA656102   3.088   2.447   5.101 -0.5976  0.6172 -0.0655
18625THY    HA656103   3.063   2.453   4.995 -0.4742  0.5918 -0.0057
18626THY      O56104   8.732   1.560   5.442  0.2528  0.5864 -0.3659
18626THY     HO56105   8.643   1.529   5.419 -0.3091  0.1430  1.4861
18626THY    CA156106   8.737   1.677   5.386 -0.4460 -0.0526 -0.0882
18626THY    CA256107   8.829   1.777   5.416 -0.3032 -1.5470  0.2642
18626THY    CP156108   8.938   1.757   5.517  0.2219  0.8168 -0.6159
18626THY    HP156109   8.954   1.649   5.529 -0.1246  1.9612 -0.5601
18626THY    CP256110   8.902   1.809   5.653 -0.6554 -0.0677 -0.4155
18626THY    HP256111   8.992   1.823   5.714 -1.5640  1.1757  0.1646
18626THY    HP356112   8.838   1.741   5.711 -0.8338  2.3278  1.6672
18626THY    HP456113   8.867   1.912   5.648 -0.2763 -0.7061 -0.3124
18626THY    CP356114   9.066   1.826   5.462 -0.1315  0.0991  0.2577
18626THY    HP556115   9.099   1.916   5.516 -1.0770  1.1012  0.0281
18626THY    HP656116   9.069   1.841   5.354  0.9064 -0.0181 -0.6554
18626THY    HP756117   9.139   1.746   5.481  0.1538 -2.8117 -0.2781
18626THY    CA356118   8.810   1.901   5.354  0.3876  0.0969 -0.1661
18626THY    HA356119   8.864   1.991   5.384  0.1485  0.8053 -0.2553
18626THY    CA456120   8.719   1.918   5.248 -0.2741 -0.1869 -0.2471
18626THY    HA456121   8.707   2.019   5.209 -0.3296 -1.2970 -0.6728
18626THY    CA556122   8.640   1.811   5.208  0.3938 -0.4419 -0.5281
18626THY    CM156123   8.521   1.824   5.108 -0.4094  0.4563 -0.7632
18626THY    HM156124   8.473   1.914   5.149  1.5472  0.2451  0.4468
18626THY    HM256125   8.445   1.745   5.113 -1.7870  0.5201  0.5112
18626THY    HM356126   8.538   1.848   5.003  0.3589  0.8872  0.7186
18626THY    CA656127   8.653   1.691   5.277 -0.1347 -0.0577  0.5837
18626THY    HA656128   8.584   1.612   5.249 -0.0635 -1.0152  0.8408
18627THY      O56129   5.035   3.094   7.470  0.2480  0.2269 -0.0683
18627THY     HO56130   5.108   3.133   7.420  0.3651  1.1322  0.9224
18627THY    CA156131   5.003   2.987   7.399 -0.1274  0.5269 -0.0320
18627THY    CA256132   4.872   2.928   7.424 -0.2800  0.3355 -0.0001
18627THY    CP156133   4.776   2.969   7.537 -0.7415 -0.4457  0.6411
18627THY    HP156134   4.827   3.034   7.609  0.3047 -1.4518  0.9754
18627THY    CP256135   4.736   2.853   7.625  0.2833  0.4696 -0.5249
18627THY    HP256136   4.669   2.888   7.706 -0.2364 -0.2992  0.3171
18627THY    HP356137   4.829   2.805   7.655  1.2498  0.2077  1.1291
18627THY    HP456138   4.680   2.781   7.565 -0.2754  2.4009 -1.8028
18627THY    CP356139   4.660   3.045   7.473 -0.5639  0.2743  0.2088
18627THY    HP556140   4.616   2.998   7.384 -2.2996 -0.0415  2.2488
18627THY    HP656141   4.696   3.146   7.448  0.8034  0.7493 -0.1328
18627THY    HP756142   4.576   3.057   7.542 -1.2554 -0.7211  1.4547
18627THY    CA356143   4.835   2.831   7.329  0.1145  0.1047 -0.2000
18627THY    HA356144   4.740   2.777   7.336  0.2596 -0.8140 -0.5924
18627THY    CA456145   4.914   2.787   7.222 -0.6126  0.5707 -0.4077
18627THY    HA456146   4.876   2.709   7.156 -0.5430  0.7431 -0.5875
18627THY    CA556147   5.040   2.843   7.207 -0.7291  0.0579 -0.6340
18627THY    CM156148   5.127   2.826   7.086 -0.2173  0.0914 -0.2180
18627THY    HM156149   5.219   2.772   7.112  1.9525 -1.6973  2.3204
18627THY    HM256150   5.164   2.925   7.057  1.1895 -0.5221 -0.8935
18627THY    HM356151   5.076   2.775   7.003  0.3613 -0.1001 -0.4941
18627THY    CA656152   5.083   2.940   7.294  0.1071  0.2201 -0.2758
18627THY    HA656153   5.181   2.980   7.269  1.5066 -0.3283 -3.6664
18628THY      O56154   4.074   0.853   3.788 -0.1551 -0.1276  0.5679
18628THY     HO56155   4.078   0.862   3.691 -0.6707 -0.2352 -0.2614
18628THY    CA156156   3.936   0.879   3.805  0.1090  0.0254 -0.4951
18628THY    CA256157   3.867   0.852   3.928 -0.4218  0.8049  0.5168
18628THY    CP156158   3.944   0.777   4.030  0.2100  0.0252 -0.4435
18628THY    HP156159   4.049   0.773   4.000 -0.6002 -3.1465 -0.3292
18628THY    CP256160   3.904   0.633   4.033  0.3296  0.7787  0.3752
18628THY    HP256161   3.981   0.571   4.082 -0.5938  0.6168 -0.9446
18628THY    HP356162   3.899   0.598   3.929  2.6409  1.0354 -0.9662
18628THY    HP456163   3.812   0.608   4.087  0.6121  0.7029 -0.9180
18628THY    CP356164   3.933   0.830   4.170  0.3128  0.2058  0.1368
18628THY    HP556165   3.981   0.770   4.249  0.4591  0.5749  0.7304
18628THY    HP656166   3.828   0.837   4.201  0.3615  1.3693 -2.8867
18628THY    HP756167   3.984   0.927   4.171  1.9298 -1.9436 -0.6166
18628THY    CA356168   3.744   0.904   3.943  0.5245  0.2866 -0.5401
18628THY    HA356169   3.690   0.895   4.037  1.5054  0.9696  0.4723
18628THY    CA456170   3.684   0.959   3.834  0.4844 -0.4950 -0.4570
18628THY    HA456171   3.584   1.001   3.843  0.2917  0.2156 -1.0429
18628THY    CA556172   3.741   0.973   3.709  0.1392  0.0481 -0.7581
18628THY    CM156173   3.674   1.049   3.600  0.2997  0.3502  0.4091
18628THY    HM156174   3.672   0.992   3.506 -0.1307  0.2858  0.5304
18628THY    HM256175   3.725   1.140   3.566 -0.8786  0.8759  1.2930
18628THY    HM356176   3.573   1.079   3.630  0.4083  2.0333 -0.7415
18628THY    CA656177   3.879   0.942   3.699  0.9820  0.0699  0.7187
18628THY    HA656178   3.939   0.963   3.610  1.0749 -0.3656 -1.1893
18629THY      O56179   7.384   8.561   2.626 -0.1359 -0.0382 -0.1829
18629THY     HO56180   7.466   8.610   2.644 -1.1184  1.5400  1.0034
18629THY    CA156181   7.393   8.528   2.501 -0.1595  0.1592 -0.0312
18629THY    CA256182   7.330   8.412   2.453 -0.2466 -0.4403  0.3433
18629THY    CP156183   7.261   8.314   2.554  0.3830 -0.4247  0.3047
18629THY    HP156184   7.239   8.353   2.654  0.7104 -0.0720 -0.3780
18629THY    CP256185   7.357   8.204   2.585 -0.1955 -0.1618  0.4680
18629THY    HP256186   7.318   8.149   2.671 -0.1323  0.3385  1.1870
18629THY    HP356187   7.459   8.240   2.604  0.3536 -1.1311 -0.5276
18629THY    HP456188   7.362   8.132   2.503 -0.9291 -0.6895  1.0034
18629THY    CP356189   7.122   8.277   2.524  0.4262  0.5460  0.2842
18629THY    HP556190   7.107   8.273   2.415 -0.2638  0.6402  0.1151
18629THY    HP656191   7.054   8.359   2.552  1.4444  0.4937  1.1644
18629THY    HP756192   7.088   8.190   2.581  0.6394  2.3418  1.3203
18629THY    CA356193   7.345   8.375   2.319 -0.7052 -0.3828  0.5911
18629THY    HA356194   7.295   8.285   2.285 -1.8087  1.9723  0.2443
18629THY    CA456195   7.425   8.456   2.233 -0.2042 -0.3097 -0.1584
18629THY    HA456196   7.439   8.422   2.131 -1.3447 -0.2531 -0.8277
18629THY    CA556197   7.486   8.576   2.280  0.1045 -0.4728  0.4996
18629THY    CM156198   7.574   8.656   2.187  0.0770 -0.3994 -0.4079
18629THY    HM156199   7.520   8.741   2.144  2.8730 -1.3727  0.9911
18629THY    HM256200   7.608   8.591   2.105 -0.0638 -1.7904  1.1903
18629THY    HM356201   7.659   8.696   2.242 -0.0550  0.4587 -1.2658
18629THY    CA656202   7.472   8.610   2.416 -0.5530  0.3951 -0.4750
18629THY    HA656203   7.506   8.708   2.448 -0.1739  0.1844 -0.5385
18630THY      O56204   8.164   2.463   7.010 -0.6870 -0.0746 -0.5074
18630THY     HO56205   8.084   2.460   6.955 -1.4039  0.9605 -2.4855
18630THY    CA156206   8.229   2.591   6.988  0.4536 -0.2588  0.4345
18630THY    CA256207   8.372   2.600   6.981 -0.0830  0.5498 -0.4054
18630THY    CP156208   8.476   2.492   6.994 -0.1590 -0.7417  0.4623
18630THY    HP156209   8.435   2.412   7.057 -0.6257  0.5032  1.6323
18630THY    CP256210   8.613   2.532   7.058 -0.1555  0.8960 -0.4366
18630THY    HP256211   8.678   2.572   6.980  0.8668  0.9147 -1.9961
18630THY    HP356212   8.665   2.442   7.092  1.2092 -3.2544 -1.4288
18630THY    HP456213   8.599   2.616   7.128 -0.8410 -0.9327  1.0452
18630THY    CP356214   8.491   2.429   6.857 -0.5608 -0.6060  0.0621
18630THY    HP556215   8.508   2.505   6.779  2.0752  3.0756  3.7159
18630THY    HP656216   8.396   2.378   6.840  0.1435 -0.9473 -1.1875
18630THY    HP756217   8.578   2.364   6.845 -0.8533 -0.8277 -0.2925
18630THY    CA356218   8.422   2.734   6.942  0.0744  0.2448  0.0575
18630THY    HA356219   8.527   2.750   6.920  0.1325 -2.2649 -2.8862
18630THY    CA456220   8.340   2.840   6.941  0.7016  0.0681  0.3111
18630THY    HA456221   8.382   2.939   6.920 -0.5916  1.2655  1.1483
18630THY    CA556222   8.197   2.829   6.970  0.4162 -0.0699 -0.3781
18630THY    CM156223   8.105   2.938   6.977 -0.1855 -0.5198  0.4768
18630THY    HM156224   8.047   2.928   7.070 -0.9516 -0.9915  0.4417
18630THY    HM256225   8.032   2.943   6.896 -0.8267  0.0850  1.3742
18630THY    HM356226   8.149   3.038   6.974 -0.4188 -0.0832  0.5960
18630THY    CA656227   8.145   2.702   6.986  0.2589 -0.0572 -0.0235
18630THY    HA656228   8.039   2.682   6.988 -0.2552  1.6058  2.4598
18631THY      O56229   7.178   2.475   7.098 -0.0362 -0.5864  0.3309
18631THY     HO56230   7.182   2.418   7.019 -1.7581  0.3232 -1.1715
18631THY    CA156231   7.213   2.599   7.044 -0.3662 -0.2208 -0.1248
18631THY    CA256232   7.267   2.701   7.128  0.4222  0.0479 -0.3288
18631THY    CP156233   7.284   2.670   7.281 -0.2339  0.2394  0.0570
18631THY    HP156234   7.198   2.613   7.319 -1.5702  0.3400  2.0200
18631THY    CP256235   7.264   2.807   7.351 -0.5371 -0.7298  0.6396
18631THY    HP256236   7.231   2.790   7.454  0.7407 -0.3155  0.5426
18631THY    HP356237   7.186   2.871   7.310 -1.9883 -1.6525 -1.6161
18631THY    HP456238   7.363   2.853   7.363  1.3242  0.4250 -3.2331
18631THY    CP356239   7.421   2.606   7.320  0.4685 -1.0783  0.0398
18631THY    HP556240   7.454   2.642   7.418  1.5929 -2.0224  1.6515
18631THY    HP656241   7.490   2.627   7.238 -0.6996 -1.7921  1.2596
18631THY    HP756242   7.394   2.499   7.318  1.6680 -2.4455 -0.2624
18631THY    CA356243   7.305   2.825   7.068  1.0129  0.2655 -0.8974
18631THY    HA356244   7.367   2.900   7.116 -0.6949 -0.8815  1.4026
18631THY    CA456245   7.278   2.852   6.934  0.6734  0.0615 -0.0620
18631THY    HA456246   7.293   2.948   6.886 -1.4968 -0.4586  0.0845
18631THY    CA556247   7.222   2.753   6.857 -0.2831 -0.4076 -0.1342
18631THY    CM156248   7.194   2.777   6.716 -0.1949  0.1737 -0.3148
18631THY    HM156249   7.119   2.858   6.712 -1.1587  0.8462 -1.1433
18631THY    HM256250   7.148   2.689   6.670 -1.2480  2.9296 -1.3120
18631THY    HM356251   7.290   2.790   6.666  0.9772  2.2375 -0.6449
18631THY    CA656252   7.193   2.629   6.913  0.2761 -0.1891 -0.0392
18631THY    HA656253   7.148   2.547   6.856  1.8293 -2.5269  0.6265
18632THY      O56254   1.430   3.993   2.525  0.0121  0.1017  0.5562
18632THY     HO56255   1.371   4.042   2.583 -1.5209 -1.5561  0.7858
18632THY    CA156256   1.340   3.931   2.441  0.0977  0.4886 -0.2709
18632THY    CA256257   1.374   3.813   2.369  0.0951 -0.7076 -0.0648
18632THY    CP156258   1.518   3.761   2.377  0.2638 -0.3104  0.0565
18632THY    HP156259   1.575   3.828   2.442  0.5605 -1.1654  0.6454
18632THY    CP256260   1.596   3.767   2.248  0.1597  0.1041  0.6072
18632THY    HP256261   1.613   3.872   2.222 -0.6347 -1.2399  0.4316
18632THY    HP356262   1.538   3.712   2.173 -0.2422  1.9804 -1.6996
18632THY    HP456263   1.696   3.721   2.255  0.0736 -2.6564 -0.1915
18632THY    CP356264   1.525   3.611   2.431  0.1134  0.6211  0.6286
18632THY    HP556265   1.617   3.584   2.484  0.0748  0.2542 -0.2549
18632THY    HP656266   1.512   3.540   2.349 -3.3087  0.7160  0.9705
18632THY    HP756267   1.441   3.586   2.497 -0.9883 -1.6680 -2.3288
18632THY    CA356268   1.275   3.744   2.297 -0.0760 -0.3543 -0.2401
18632THY    HA356269   1.291   3.651   2.243 -2.0350 -1.4884  0.0151
18632THY    CA456270   1.141   3.791   2.299 -0.4705  1.1300 -0.3786
18632THY    HA456271   1.061   3.737   2.249  1.3799 -0.9863 -1.2810
18632THY    CA556272   1.108   3.903   2.373  0.0531  0.1567  0.3796
18632THY    CM156273   0.964   3.951   2.389  1.0041  0.1389 -0.4621
18632THY    HM156274   0.924   3.944   2.491 -0.1528 -0.1653  1.0293
18632THY    HM256275   0.897   3.903   2.317  0.8330 -0.4626  0.6430
18632THY    HM356276   0.971   4.057   2.364  1.4650  0.6965 -0.3544
18632THY    CA656277   1.208   3.974   2.443  0.7590 -0.8675 -0.5811
18632THY    HA656278   1.173   4.055   2.507  4.9557 -0.9017  1.5088
18633THY      O56279   3.355   3.687   5.213  0.3151 -0.7382  0.5171
18633THY     HO56280   3.345   3.647   5.125  1.7794 -0.7833  0.2063
18633THY    CA156281   3.306   3.614   5.318  0.2371 -0.4337  0.1482
18633THY    CA256282   3.224   3.673   5.423  0.8075 -0.0583  0.0486
18633THY    CP156283   3.195   3.826   5.414  0.3062 -0.2722  0.2579
18633THY    HP156284   3.224   3.867   5.317 -0.9307 -1.1059 -0.7637
18633THY    CP256285   3.274   3.898   5.519  0.2892  0.4589  0.5557
18633THY    HP256286   3.373   3.896   5.471 -0.6628 -1.6309 -2.2036
18633THY    HP356287   3.274   3.856   5.620 -0.6799  0.1952 -0.1023
18633THY    HP456288   3.239   4.001   5.533  0.0317  2.0221  0.2735
18633THY    CP356289   3.049   3.849   5.429 -0.2061  0.4561 -0.2837
18633THY    HP556290   3.019   3.836   5.534 -0.2205  0.1764 -2.9198
18633THY    HP656291   2.989   3.784   5.364  0.0161  0.9273 -0.9657
18633THY    HP756292   3.025   3.955   5.410 -1.1746  2.2776 -0.1267
18633THY    CA356293   3.177   3.587   5.523  0.1221 -0.0878  0.3208
18633THY    HA356294   3.112   3.632   5.597  0.7423  0.7287 -0.1079
18633THY    CA456295   3.217   3.451   5.526 -0.6740 -0.3883 -0.0997
18633THY    HA456296   3.187   3.389   5.610  0.4325  0.6724  0.7661
18633THY    CA556297   3.287   3.396   5.420  0.4146 -0.4536 -0.2557
18633THY    CM156298   3.320   3.256   5.418 -0.1240 -0.3797 -0.3760
18633THY    HM156299   3.386   3.232   5.501 -1.8127  0.2689 -3.2021
18633THY    HM256300   3.379   3.235   5.328 -1.8783 -2.0657  1.3557
18633THY    HM356301   3.232   3.191   5.413 -0.0869 -1.3819 -0.3701
18633THY    CA656302   3.337   3.478   5.318 -0.6650 -0.0795  0.1633
18633THY    HA656303   3.399   3.443   5.236 -0.6460  0.1903 -0.4507
18634THY      O56304   9.033   9.278   7.155  0.2238  0.1633  0.1101
18634THY     HO56305   9.053   9.328   7.074  0.9592 -0.3904 -1.0317
18634THY    CA156306   9.062   9.144   7.142 -0.1432 -0.3494 -0.4901
18634THY    CA256307   9.026   9.046   7.242 -0.4310 -0.5586  0.2144
18634THY    CP156308   8.974   9.094   7.378 -0.0952  0.1779  0.5749
18634THY    HP156309   8.973   9.203   7.384 -1.2408 -0.2719  0.6070
18634THY    CP256310   9.052   9.031   7.500 -0.4733  0.1722 -0.0976
18634THY    HP256311   9.156   9.063   7.490 -0.5174  0.1874  0.0506
18634THY    HP356312   9.032   8.923   7.500 -1.5918 -0.5207  0.0927
18634THY    HP456313   9.008   9.059   7.597 -0.7135  0.2005 -0.5674
18634THY    CP356314   8.827   9.056   7.393  0.5973  0.2650 -0.2298
18634THY    HP556315   8.815   8.951   7.366  1.9619 -2.4627  0.2283
18634THY    HP656316   8.766   9.121   7.329 -0.6795  1.1283 -0.5268
18634THY    HP756317   8.787   9.073   7.494 -0.1371 -0.3663  2.2143
18634THY    CA356318   9.057   8.908   7.224  0.2074  0.1481  0.0244
18634THY    HA356319   9.041   8.835   7.302 -1.0811 -0.3099 -0.2158
18634THY    CA456320   9.113   8.872   7.104 -0.7455  0.1177 -0.1816
18634THY    HA456321   9.149   8.771   7.085 -0.7742  0.9682 -0.3574
18634THY    CA556322   9.132   8.958   7.002 -0.4823 -0.2645  0.5009
18634THY    CM156323   9.210   8.917   6.878 -0.4605 -0.7201 -0.4219
18634THY    HM156324   9.228   8.995   6.803  1.2563  1.2906  1.2362
18634THY    HM256325   9.182   8.825   6.824 -3.0344 -1.0960  0.4786
18634THY    HM356326   9.313   8.902   6.910 -0.7636  0.7247  0.3814
18634THY    CA656327   9.116   9.101   7.019  0.7102 -0.4391 -0.5358
18634THY    HA656328   9.155   9.166   6.942  0.7742  2.1729  2.8068
18635THY      O56329   6.619   4.481   7.321  0.8578 -0.1170  0.4262
18635THY     HO56330   6.663   4.422   7.258 -0.4710 -0.7907  0.1038
18635THY    CA156331   6.484   4.467   7.292 -0.2656  0.5584 -0.2418
18635THY    CA256332   6.389   4.481   7.390 -0.2316  0.1446 -0.5611
18635THY    CP156333   6.431   4.496   7.535  0.4700 -0.1372  0.7276
18635THY    HP156334   6.536   4.529   7.537  0.7526 -3.0491  0.2741
18635THY    CP256335   6.430   4.359   7.610  0.7368 -0.0315  0.0865
18635THY    HP256336   6.505   4.294   7.563 -0.7540 -1.2354 -0.8614
18635THY    HP356337   6.332   4.309   7.611  0.4248  1.3458  0.6897
18635THY    HP456338   6.459   4.374   7.714 -0.3908 -0.0882  3.5545
18635THY    CP356339   6.340   4.585   7.617  0.7603  0.0359 -1.1053
18635THY    HP556340   6.390   4.615   7.710  3.4894 -1.4952 -0.5991
18635THY    HP656341   6.249   4.535   7.653  1.8167  0.6335 -2.6897
18635THY    HP756342   6.298   4.664   7.554  0.5833  1.4173 -0.0533
18635THY    CA356343   6.251   4.475   7.351 -0.5065  0.5872 -0.7256
18635THY    HA356344   6.176   4.496   7.426 -0.5346  0.6005 -0.8750
18635THY    CA456345   6.216   4.467   7.218  0.6218  0.0016 -0.1591
18635THY    HA456346   6.113   4.446   7.190 -0.5810  2.6559  1.6758
18635THY    CA556347   6.313   4.450   7.122 -1.6919  0.4982  1.1951
18635THY    CM156348   6.268   4.417   6.981 -0.1896  0.0701  0.3197
18635THY    HM156349   6.240   4.507   6.924  2.7162 -0.9431  0.6852
18635THY    HM256350   6.187   4.344   6.995 -2.1458  1.2396  2.5838
18635THY    HM356351   6.344   4.366   6.921 -1.6779 -2.0733  0.4722
18635THY    CA656352   6.448   4.443   7.156 -0.1792  0.4642 -0.4530
18635THY    HA656353   6.518   4.418   7.077 -0.2128 -0.1869  1.3443
18636THY      O56354   5.294   8.913   4.726 -0.4917 -0.0640  0.0013
18636THY     HO56355   5.370   8.957   4.685 -0.6644  1.3326  1.7415
18636THY    CA156356   5.199   8.946   4.642 -0.3692 -0.2972 -0.1152
18636THY    CA256357   5.060   8.967   4.676 -0.1132 -0.3991 -0.5332
18636THY    CP156358   5.019   8.963   4.828  0.4396 -0.3722  0.4787
18636THY    HP156359   5.102   8.948   4.898 -0.5492  0.6603 -0.4170
18636THY    CP256360   4.932   8.838   4.835  0.1981 -0.6466  0.3450
18636THY    HP256361   4.879   8.825   4.930 -1.3183 -1.1818  2.2277
18636THY    HP356362   4.990   8.747   4.818 -1.4202  1.6396 -1.2346
18636THY    HP456363   4.861   8.831   4.751  1.2401 -1.4942 -0.4639
18636THY    CP356364   4.938   9.081   4.879  0.2449 -0.0480 -0.2915
18636THY    HP556365   4.839   9.081   4.831 -0.1055  0.6457 -1.3224
18636THY    HP656366   4.993   9.172   4.853 -2.4112  1.6857  1.9914
18636THY    HP756367   4.927   9.071   4.987  2.4911  0.2308 -0.2736
18636THY    CA356368   4.971   8.994   4.575 -0.8898  0.3090  0.0608
18636THY    HA356369   4.866   9.013   4.596 -0.5274  2.4465 -0.0667
18636THY    CA456370   5.025   9.002   4.441  0.3015 -0.7350  0.0102
18636THY    HA456371   4.964   9.029   4.355  0.1530 -0.6507 -0.0541
18636THY    CA556372   5.159   8.981   4.414  0.1855  0.2819 -0.9220
18636THY    CM156373   5.212   8.998   4.278 -0.0196  0.1731 -0.2178
18636THY    HM156374   5.320   8.992   4.266  0.0140 -0.8180  1.5991
18636THY    HM256375   5.184   9.094   4.233  2.2047  2.0269  1.4189
18636THY    HM356376   5.161   8.921   4.219  0.3202 -0.0358 -0.2818
18636THY    CA656377   5.243   8.952   4.517  0.4098 -0.1839 -0.0091
18636THY    HA656378   5.343   8.924   4.485  0.2431 -3.5015  2.5795
18637THY      O56379   7.300   3.310   5.142 -0.4416 -0.2296 -0.7785
18637THY     HO56380   7.223   3.340   5.193 -0.6745 -0.9144 -0.1953
18637THY    CA156381   7.243   3.228   5.050 -0.0460  0.3487  0.0242
18637THY    CA256382   7.304   3.205   4.924  0.5228 -0.0605  0.5675
18637THY    CP156383   7.434   3.277   4.891 -0.4212 -0.8319 -0.2361
18637THY    HP156384   7.500   3.282   4.979 -0.2416 -0.9832  0.0670
18637THY    CP256385   7.397   3.414   4.839 -0.1195  0.0639 -0.4582
18637THY    HP256386   7.308   3.424   4.777  0.1256 -0.0563  1.2445
18637THY    HP356387   7.482   3.462   4.790  0.0213  0.5894 -0.1579
18637THY    HP456388   7.380   3.483   4.922  1.5766 -0.2553  0.3849
18637THY    CP356389   7.515   3.200   4.785 -0.6217  0.5388 -0.7624
18637THY    HP556390   7.523   3.092   4.800  1.6572  1.7781 -0.4842
18637THY    HP656391   7.620   3.232   4.790 -0.4670  0.5083 -1.2707
18637THY    HP756392   7.482   3.229   4.685 -2.3752  1.4499  0.5426
18637THY    CA356393   7.228   3.136   4.828  0.2553 -0.2526  0.3759
18637THY    HA356394   7.270   3.133   4.728  1.5232  0.2747 -0.0911
18637THY    CA456395   7.095   3.084   4.859 -0.2220 -0.1621 -0.2840
18637THY    HA456396   7.040   3.030   4.782  2.8435 -1.6125 -1.6024
18637THY    CA556397   7.046   3.104   4.989  0.3327  0.2838 -0.6874
18637THY    CM156398   6.918   3.033   5.028  1.1107  0.0144  0.3967
18637THY    HM156399   6.939   2.952   5.099 -0.6188  1.1589  0.9021
18637THY    HM256400   6.850   2.987   4.955 -0.0197  0.0429  1.9326
18637THY    HM356401   6.855   3.104   5.082 -0.1416  0.4370 -0.9703
18637THY    CA656402   7.113   3.185   5.075  0.5298 -0.1661 -0.7277
18637THY    HA656403   7.074   3.193   5.175  0.1401 -0.4593  1.5276
18638THY      O56404   6.317   6.550   7.669  0.2737  0.1033  0.4677
18638THY     HO56405   6.288   6.465   7.631 -1.1689  0.2018  0.8882
18638THY    CA156406   6.436   6.513   7.714 -0.0424  0.1599  0.2338
18638THY    CA256407   6.528   6.607   7.767 -0.2844 -0.5807  0.1021
18638THY    CP156408   6.493   6.755   7.788  0.1057 -0.2858  0.7197
18638THY    HP156409   6.386   6.771   7.768 -0.1982 -0.2551 -1.0708
18638THY    CP256410   6.567   6.837   7.683 -0.2364  1.2803  0.3399
18638THY    HP256411   6.669   6.805   7.662 -0.3691  1.2844 -0.0881
18638THY    HP356412   6.567   6.945   7.705 -0.8963  0.4349  0.5269
18638THY    HP456413   6.521   6.828   7.584  0.5897  0.7452  1.6363
18638THY    CP356414   6.533   6.805   7.927 -0.3845 -0.7776 -0.3502
18638THY    HP556415   6.640   6.798   7.946 -0.4301 -0.4272 -0.1076
18638THY    HP656416   6.470   6.749   7.998  2.4154  2.3822  0.2157
18638THY    HP756417   6.509   6.911   7.933 -3.6280  0.6940 -1.0403
18638THY    CA356418   6.661   6.567   7.792  0.2500 -0.2462  0.2587
18638THY    HA356419   6.737   6.639   7.822  0.1566 -0.0312  0.2678
18638THY    CA456420   6.697   6.437   7.778 -0.1137  0.1331  0.1293
18638THY    HA456421   6.801   6.406   7.783 -0.3535 -0.0458 -0.7096
18638THY    CA556422   6.594   6.338   7.740 -0.4366 -0.1041 -0.5588
18638THY    CM156423   6.631   6.194   7.747  0.2669  0.6145 -0.7682
18638THY    HM156424   6.653   6.170   7.851 -0.5247  1.2925  1.2263
18638THY    HM256425   6.720   6.192   7.683 -0.9469 -1.4156  2.3077
18638THY    HM356426   6.566   6.129   7.688  2.0051 -2.3223 -0.0338
18638THY    CA656427   6.467   6.378   7.711 -0.1640  0.2186 -0.4141
18638THY    HA656428   6.398   6.303   7.674  0.7476 -2.3479 -0.0944
18639THY      O56429   5.822   0.836   6.334  0.5587  0.0199  0.3819
18639THY     HO56430   5.816   0.822   6.238  0.1655  0.1282 -0.2824
18639THY    CA156431   5.758   0.953   6.366 -0.2946  0.0777 -0.0251
18639THY    CA256432   5.771   1.011   6.496 -0.5564  0.1107  0.6492
18639THY    CP156433   5.862   0.955   6.608 -0.4918  0.8016  0.4804
18639THY    HP156434   5.907   0.859   6.579  3.0424  0.2640  2.1351
18639THY    CP256435   5.785   0.927   6.730  0.0372 -0.3880 -0.6572
18639THY    HP256436   5.723   1.009   6.767  0.8261  0.1816 -0.3005
18639THY    HP356437   5.851   0.898   6.813  0.7624 -0.8027 -0.2229
18639THY    HP456438   5.714   0.847   6.708  0.5393 -0.3733 -1.1138
18639THY    CP356439   5.974   1.046   6.646  0.4327 -0.0975  0.1336
18639THY    HP556440   5.939   1.143   6.684 -2.0457  0.0508 -0.7539
18639THY    HP656441   6.039   1.065   6.559 -2.4968 -2.3336  0.6281
18639THY    HP756442   6.035   1.000   6.724  0.7804 -0.7254 -0.4897
18639THY    CA356443   5.701   1.128   6.529  0.1749  0.5618 -0.2823
18639THY    HA356444   5.730   1.171   6.625  0.0321  0.2310  0.5837
18639THY    CA456445   5.612   1.186   6.433 -0.9854 -1.2362 -0.4373
18639THY    HA456446   5.557   1.277   6.452 -0.2008  0.5935 -0.3129
18639THY    CA556447   5.605   1.126   6.305  0.3813  0.2378  0.1760
18639THY    CM156448   5.512   1.185   6.199 -0.2150 -0.1897  0.6164
18639THY    HM156449   5.510   1.295   6.198  0.5169 -1.8662  0.6525
18639THY    HM256450   5.412   1.149   6.227  0.2763  0.5863 -0.1801
18639THY    HM356451   5.527   1.155   6.094 -0.3477  0.6037 -2.6045
18639THY    CA656452   5.681   1.013   6.270  0.2489  0.2556 -0.9264
18639THY    HA656453   5.667   0.966   6.173 -3.3066  1.5914 -3.0758
18640THY      O56454   7.390   0.232   5.529  0.0901  0.0562  0.3106
18640THY     HO56455   7.326   0.164   5.555 -0.3260 -0.3696  0.5422
18640THY    CA156456   7.323   0.332   5.467 -0.6184  0.0365 -0.7177
18640THY    CA256457   7.336   0.469   5.512 -0.1507 -0.0637 -0.7799
18640THY    CP156458   7.452   0.503   5.607 -0.2001 -0.2429  0.1294
18640THY    HP156459   7.457   0.428   5.686 -2.2357 -0.8208 -0.6884
18640THY    CP256460   7.431   0.633   5.683  0.6415  0.4007 -0.3499
18640THY    HP256461   7.331   0.648   5.726 -0.7236 -1.9993 -1.9690
18640THY    HP356462   7.437   0.715   5.611 -1.2934 -0.6183 -1.0463
18640THY    HP456463   7.506   0.647   5.762  0.6432  0.2060  0.8235
18640THY    CP356464   7.586   0.494   5.534 -0.7537 -0.2816 -0.1775
18640THY    HP556465   7.665   0.531   5.602 -3.4249  1.7753  2.2026
18640THY    HP656466   7.578   0.560   5.447 -4.3856  0.7104  0.8992
18640THY    HP756467   7.604   0.392   5.497  0.5425  1.6293 -0.7022
18640THY    CA356468   7.254   0.566   5.443 -0.1228  0.0223  0.6083
18640THY    HA356469   7.259   0.672   5.466  0.7336  0.2465  0.5264
18640THY    CA456470   7.185   0.528   5.330 -0.0393  0.3672  0.6572
18640THY    HA456471   7.145   0.605   5.264 -2.4679  2.8693  1.7349
18640THY    CA556472   7.183   0.396   5.280  0.8074  0.6500  0.5277
18640THY    CM156473   7.106   0.369   5.152  0.2289 -0.9686 -0.3957
18640THY    HM156474   7.168   0.344   5.065 -0.6072 -1.5699 -0.4331
18640THY    HM256475   7.037   0.452   5.129 -1.2604  0.5230 -1.1457
18640THY    HM356476   7.037   0.285   5.166  1.9752  1.6806 -1.5152
18640THY    CA656477   7.249   0.298   5.351 -0.0598 -1.1255 -0.5846
18640THY    HA656478   7.236   0.195   5.320  1.1212 -0.6888 -0.8811
18641THY      O56479   2.325   6.091   4.433  0.3994  0.6865  0.0515
18641THY     HO56480   2.345   6.011   4.484  0.3444 -2.0426 -1.8668
18641THY    CA156481   2.342   6.041   4.305 -0.0674 -0.1479  0.0495
18641THY    CA256482   2.389   6.125   4.200  0.0209 -0.2906 -0.2501
18641THY    CP156483   2.398   6.275   4.215 -0.7007  1.1450 -0.6261
18641THY    HP156484   2.341   6.303   4.304 -2.9192 -0.1500 -0.8156
18641THY    CP256485   2.323   6.346   4.107 -0.0340 -0.0664 -0.4845
18641THY    HP256486   2.322   6.449   4.145  0.9812 -1.1507 -0.0541
18641THY    HP356487   2.226   6.299   4.089 -0.2206 -0.9006  0.1851
18641THY    HP456488   2.373   6.341   4.010 -0.5450 -0.2744 -1.7767
18641THY    CP356489   2.537   6.335   4.221 -0.0136 -0.5170 -0.2714
18641THY    HP556490   2.540   6.444   4.215 -2.5783 -0.0086 -0.1073
18641THY    HP656491   2.589   6.296   4.133  0.2852  0.3235 -1.8571
18641THY    HP756492   2.591   6.313   4.314  3.0398 -1.7508  1.4722
18641THY    CA356493   2.422   6.061   4.077  0.3952  0.1479 -0.5567
18641THY    HA356494   2.473   6.117   3.999  0.6658  0.1628 -0.7810
18641THY    CA456495   2.429   5.923   4.065  0.8896  0.3899 -0.5339
18641THY    HA456496   2.482   5.870   3.986 -0.2960 -0.9966  0.3043
18641THY    CA556497   2.376   5.844   4.167  0.3553  0.0312 -0.8044
18641THY    CM156498   2.384   5.695   4.159  0.6932 -0.3850 -0.6429
18641THY    HM156499   2.442   5.667   4.070 -0.7252 -1.5579  0.0280
18641THY    HM256500   2.285   5.647   4.157  0.2368  1.0202  0.1719
18641THY    HM356501   2.438   5.651   4.244 -2.5537  3.0060  1.3836
18641THY    CA656502   2.331   5.904   4.285 -0.2545 -0.2593  0.6841
18641THY    HA656503   2.297   5.837   4.364 -0.6790  0.5243  1.7927
18642THY      O56504   6.493   4.538   6.335  0.4911 -0.1723  0.1851
18642THY     HO56505   6.581   4.532   6.295  1.0270  0.8122  1.0309
18642THY    CA156506   6.467   4.418   6.390  0.1819 -0.1470 -0.1789
18642THY    CA256507   6.383   4.404   6.499 -0.6150 -0.5877  0.0579
18642THY    CP156508   6.297   4.528   6.535 -0.2704 -0.7872  0.1814
18642THY    HP156509   6.261   4.585   6.449 -0.2531  0.3336  1.9675
18642THY    CP256510   6.367   4.620   6.633 -0.4792  0.8991 -0.4500
18642THY    HP256511   6.383   4.565   6.727  0.4986  0.2562 -1.3121
18642THY    HP356512   6.306   4.711   6.630  0.8926 -1.7500  0.5048
18642THY    HP456513   6.468   4.643   6.597 -0.2320  1.0377 -1.2807
18642THY    CP356514   6.167   4.484   6.601  0.2311 -0.6037 -0.3151
18642THY    HP556515   6.100   4.568   6.621  0.4608 -1.0097 -0.0261
18642THY    HP656516   6.182   4.431   6.695  0.0208 -0.6071 -0.3823
18642THY    HP756517   6.120   4.419   6.526  3.5879 -2.4182 -0.9157
18642THY    CA356518   6.368   4.276   6.566 -0.4843 -0.5326  0.1673
18642THY    HA356519   6.300   4.259   6.649 -0.3996 -0.7582 -1.3213
18642THY    CA456520   6.451   4.176   6.522 -0.3324 -1.0424 -0.2548
18642THY    HA456521   6.439   4.080   6.573  0.0707 -0.8339 -0.1977
18642THY    CA556522   6.532   4.189   6.411  0.1139  0.6335  0.8602
18642THY    CM156523   6.624   4.076   6.372 -0.0733 -0.5504  0.4593
18642THY    HM156524   6.570   3.982   6.357  0.7477  0.9895 -0.2937
18642THY    HM256525   6.705   4.061   6.444 -0.5991 -0.0700 -0.1032
18642THY    HM356526   6.674   4.092   6.276 -0.0047 -1.1425 -2.7399
18642THY    CA656527   6.544   4.314   6.345  0.0712 -0.2974  0.7069
18642THY    HA656528   6.614   4.326   6.263  1.1895  0.6766  1.0270
18643THY      O56529   5.135   0.504   1.870  0.5886  0.2611 -1.0680
18643THY     HO56530   5.092   0.449   1.803  1.0243  0.3814 -1.5560
18643THY    CA156531   5.038   0.593   1.918 -0.5298  0.6638 -0.3629
18643THY    CA256532   5.052   0.740   1.902  0.4693 -0.0479 -0.7322
18643THY    CP156533   5.173   0.816   1.848  0.0287  0.5290  0.3016
18643THY    HP156534   5.257   0.755   1.883  0.6512 -0.8177  0.3508
18643THY    CP256535   5.197   0.960   1.901  0.1111 -0.3048 -0.0058
18643THY    HP256536   5.192   0.968   2.010 -0.5336 -0.3762  0.7786
18643THY    HP356537   5.125   1.031   1.858 -1.5471  0.7373 -0.9700
18643THY    HP456538   5.296   0.996   1.871 -0.0797 -1.2648 -0.2494
18643THY    CP356539   5.178   0.807   1.698  0.0427 -0.0472 -0.8556
18643THY    HP556540   5.146   0.708   1.664 -0.9004 -2.2404  0.1302
18643THY    HP656541   5.279   0.834   1.663  0.2817  0.8051 -0.6096
18643THY    HP756542   5.117   0.890   1.659 -0.5518  0.0444 -1.2438
18643THY    CA356543   4.943   0.818   1.948  0.4180  0.6571  0.5716
18643THY    HA356544   4.950   0.926   1.943  3.1026 -0.4285  0.4392
18643THY    CA456545   4.831   0.758   2.003  0.4828 -0.0623  0.7218
18643THY    HA456546   4.738   0.808   2.028 -3.4355 -1.0971 -5.0569
18643THY    CA556547   4.826   0.615   2.022 -0.6130  0.3628  0.0688
18643THY    CM156548   4.701   0.556   2.074  0.5272 -0.1396  0.3884
18643THY    HM156549   4.695   0.464   2.015  0.5655 -1.3644  1.1411
18643THY    HM256550   4.609   0.609   2.047  0.9458 -3.8134 -0.4760
18643THY    HM356551   4.709   0.515   2.175 -2.0880 -0.1490 -0.3171
18643THY    CA656552   4.930   0.530   1.975 -0.3603  1.1810 -0.8992
18643THY    HA656553   4.931   0.422   1.986  1.5349 -3.5233 -1.6043
18644THY      O56554   5.074   8.586   3.868 -0.0078 -0.0833  0.0013
18644THY     HO56555   5.017   8.509   3.850 -0.7881  1.1115  0.2697
18644THY    CA156556   4.991   8.688   3.819  0.2147  0.9677 -1.0095
18644THY    CA256557   5.043   8.821   3.808 -0.5166 -0.2607  0.2035
18644THY    CP156558   5.192   8.848   3.833 -0.5542  0.4477 -0.2503
18644THY    HP156559   5.232   8.766   3.894  3.1293  0.9519  1.7124
18644THY    CP256560   5.215   8.980   3.909  0.9089 -0.3199  0.6473
18644THY    HP256561   5.154   8.978   4.000  0.6997 -0.4378  1.4639
18644THY    HP356562   5.180   9.062   3.846  0.9277 -2.0786 -0.6232
18644THY    HP456563   5.320   8.999   3.932  0.2851  2.0201  1.5530
18644THY    CP356564   5.271   8.852   3.698  0.2579 -1.0798 -0.4273
18644THY    HP556565   5.255   8.951   3.655  0.3369 -4.0201 -1.5888
18644THY    HP656566   5.243   8.776   3.625  0.7488 -0.4911 -1.1890
18644THY    HP756567   5.380   8.842   3.709  0.1698 -0.7207 -1.0491
18644THY    CA356568   4.953   8.923   3.772  0.7229  0.4482 -0.0330
18644THY    HA356569   4.987   9.023   3.746 -1.1974  0.4689  0.6786
18644THY    CA456570   4.818   8.892   3.737  0.3751  0.4048  0.1476
18644THY    HA456571   4.744   8.965   3.707 -0.4437  0.6098 -0.5908
18644THY    CA556572   4.775   8.762   3.752 -0.2321 -0.7915  0.1421
18644THY    CM156573   4.642   8.725   3.718  0.3264  0.1041 -0.1511
18644THY    HM156574   4.573   8.810   3.719  1.7858  0.8858  1.0856
18644THY    HM256575   4.604   8.658   3.797  3.8312  0.0520 -2.4956
18644THY    HM356576   4.647   8.677   3.620  0.9206 -0.4641  1.0434
18644THY    CA656577   4.862   8.657   3.789  0.0324 -0.1520  0.0995
18644THY    HA656578   4.817   8.558   3.794  0.6368 -0.4160 -0.1976
18645THY      O56579   1.186   9.277   4.560 -0.2048 -0.0602  0.0535
18645THY     HO56580   1.271   9.300   4.519 -0.8347 -0.6791  1.3149
18645THY    CA156581   1.190   9.141   4.581  0.5324 -0.4022  0.7983
18645THY    CA256582   1.098   9.066   4.661  0.3585 -0.4049 -0.3541
18645THY    CP156583   0.978   9.138   4.726 -0.1976 -0.6388 -0.2966
18645THY    HP156584   0.947   9.221   4.662 -0.3163 -0.8509 -0.5021
18645THY    CP256585   1.031   9.190   4.860  0.1439 -0.3262  1.2083
18645THY    HP256586   0.965   9.268   4.899 -2.1438  0.9578 -1.1894
18645THY    HP356587   1.129   9.239   4.854  0.4151  0.5033  0.7832
18645THY    HP456588   1.035   9.106   4.930 -0.5908 -0.6342  0.9076
18645THY    CP356589   0.843   9.062   4.748 -0.7070 -0.5140  0.4298
18645THY    HP556590   0.841   8.974   4.813  0.5671 -1.0151  0.0180
18645THY    HP656591   0.805   9.024   4.652 -0.5601 -0.2357 -0.4365
18645THY    HP756592   0.765   9.126   4.791 -0.5441  3.8930 -1.9725
18645THY    CA356593   1.124   8.928   4.682  0.6186  0.4181  0.6995
18645THY    HA356594   1.067   8.868   4.752 -0.3169 -0.1267  0.9343
18645THY    CA456595   1.232   8.866   4.616  0.5633  0.0673 -0.1626
18645THY    HA456596   1.263   8.766   4.644  2.3296  0.8440  0.5655
18645THY    CA556597   1.324   8.943   4.539 -0.1068  0.0016  0.9205
18645THY    CM156598   1.437   8.871   4.473  0.3790  0.0704  0.6701
18645THY    HM156599   1.434   8.762   4.460  1.0902 -0.0883  0.6647
18645THY    HM256600   1.536   8.880   4.519 -0.2812  3.2243 -4.0469
18645THY    HM356601   1.432   8.898   4.367  0.9321 -0.0940  0.1615
18645THY    CA656602   1.299   9.077   4.513  0.2670  0.0891 -0.1909
18645THY    HA656603   1.364   9.136   4.449 -0.6338  0.4034  1.1745
18646THY      O56604   7.707   2.238   2.902  0.1999 -0.1385  0.1116
18646THY     HO56605   7.644   2.186   2.955  1.2181 -0.4547 -1.5190
18646THY    CA156606   7.644   2.362   2.873 -0.4056 -0.3815 -0.8788
18646THY    CA256607   7.675   2.437   2.756 -0.1062 -0.2327 -0.2299
18646THY    CP156608   7.783   2.390   2.653  0.2640  0.3534 -0.2781
18646THY    HP156609   7.868   2.355   2.713 -0.2062  1.4048  0.3445
18646THY    CP256610   7.843   2.504   2.573  0.8822  0.5525  0.2659
18646THY    HP256611   7.936   2.462   2.534  0.8684 -0.0484  0.7920
18646THY    HP356612   7.851   2.597   2.630 -0.1874  2.3110 -0.6479
18646THY    HP456613   7.774   2.526   2.491  1.6689  0.1854  1.4243
18646THY    CP356614   7.737   2.268   2.574  0.1298  0.1501  0.6646
18646THY    HP556615   7.638   2.281   2.528  0.0883  0.1381  0.3028
18646THY    HP656616   7.723   2.186   2.645 -0.2253  1.8041  2.0859
18646THY    HP756617   7.817   2.247   2.502  1.1794  0.4948  3.0509
18646THY    CA356618   7.605   2.554   2.728 -0.1582 -1.3344 -0.2379
18646THY    HA356619   7.612   2.613   2.637  1.8085 -0.3431  1.2060
18646THY    CA456620   7.497   2.589   2.816 -0.3628 -0.0766 -0.1533
18646THY    HA456621   7.450   2.681   2.782  2.1122 -1.8728  0.5767
18646THY    CA556622   7.476   2.523   2.942  0.4285  0.3438  1.0410
18646THY    CM156623   7.371   2.563   3.030  0.0662  0.3026  0.2342
18646THY    HM156624   7.315   2.472   3.056  0.0741  1.4648  0.5469
18646THY    HM256625   7.300   2.631   2.982 -1.0160  1.5594  0.0440
18646THY    HM356626   7.404   2.602   3.127  0.4384  0.4117 -0.3387
18646THY    CA656627   7.550   2.403   2.966  0.2908 -0.1088 -0.4351
18646THY    HA656628   7.522   2.337   3.047  0.0776  0.2968  0.1395
18647THY      O56629   7.881   1.683   6.995 -0.2548 -0.4733 -0.0354
18647THY     HO56630   7.973   1.709   6.978 -0.1423  0.6250  0.3704
18647THY    CA156631   7.858   1.729   7.116 -0.9081  0.0850 -0.6338
18647THY    CA256632   7.725   1.769   7.155 -0.6902 -0.1521  0.2467
18647THY    CP156633   7.606   1.745   7.057 -0.8468 -0.1456 -0.2388
18647THY    HP156634   7.613   1.659   6.990 -0.7796  1.7344 -1.7490
18647THY    CP256635   7.597   1.858   6.958 -0.2835 -0.8113  0.1140
18647THY    HP256636   7.687   1.870   6.896  1.8217  1.7025 -1.5034
18647THY    HP356637   7.596   1.950   7.017 -0.6083  1.0225 -1.0143
18647THY    HP456638   7.510   1.842   6.894 -0.9048  0.3984 -1.6548
18647THY    CP356639   7.473   1.723   7.131 -0.2498 -0.4436 -0.2296
18647THY    HP556640   7.451   1.810   7.194  0.5187 -0.4734 -0.0077
18647THY    HP656641   7.482   1.631   7.190  0.0159 -2.8126 -1.8032
18647THY    HP756642   7.391   1.711   7.059  0.6305 -1.8840  1.8857
18647THY    CA356643   7.715   1.817   7.288 -0.4953 -0.6371  0.0075
18647THY    HA356644   7.617   1.836   7.331 -1.0719 -1.7946 -0.2906
18647THY    CA456645   7.829   1.829   7.371 -0.4429 -0.1320  0.0376
18647THY    HA456646   7.819   1.868   7.472 -0.0351  0.4333 -1.2704
18647THY    CA556647   7.954   1.796   7.323  0.2659  0.1417 -0.5264
18647THY    CM156648   8.079   1.789   7.411  0.1952 -0.1609  0.3733
18647THY    HM156649   8.097   1.682   7.428 -2.6232 -0.0574 -0.1726
18647THY    HM256650   8.071   1.839   7.509  0.5144  0.4584 -0.7529
18647THY    HM356651   8.160   1.825   7.348 -0.3875  0.5499  3.2294
18647THY    CA656652   7.965   1.748   7.193 -0.1897  0.0717 -0.2422
18647THY    HA656653   8.066   1.726   7.162  0.7453  3.8274 -1.8700
18648THY      O56654   8.953   7.080   3.987  0.5273  0.3794  0.3377
18648THY     HO56655   8.884   7.148   3.987 -0.5376 -1.5744 -0.6323
18648THY    CA156656   9.046   7.110   3.902  0.3417  0.3084 -0.1140
18648THY    CA256657   9.152   7.025   3.869  0.4095 -0.2339  0.4660
18648THY    CP156658   9.168   6.887   3.940  0.2724 -0.2257  0.3409
18648THY    HP156659   9.124   6.901   4.040  0.3138 -0.1922  0.2358
18648THY    CP256660   9.306   6.827   3.973  0.4166  0.5660 -0.5597
18648THY    HP256661   9.374   6.908   4.004 -0.4122  2.2404 -0.4666
18648THY    HP356662   9.355   6.796   3.880 -0.8443 -1.3806  2.7137
18648THY    HP456663   9.300   6.754   4.054  0.2019  0.7035 -0.3913
18648THY    CP356664   9.085   6.772   3.872 -0.6119  0.1712 -0.9153
18648THY    HP556665   9.120   6.730   3.777  1.6327  0.0372  1.0339
18648THY    HP656666   8.984   6.812   3.859 -0.1152 -1.0970  0.0092
18648THY    HP756667   9.070   6.693   3.946 -0.4531  0.8649 -0.3180
18648THY    CA356668   9.247   7.072   3.779 -0.8764 -0.3492 -0.5354
18648THY    HA356669   9.340   7.022   3.753  0.1780 -2.0343  2.0502
18648THY    CA456670   9.247   7.204   3.732 -0.1984 -0.2284 -0.2311
18648THY    HA456671   9.325   7.240   3.666 -0.3386  0.9960  2.6108
18648THY    CA556672   9.144   7.292   3.774 -0.2863  0.1518  0.7925
18648THY    CM156673   9.162   7.440   3.739  0.3262 -0.1587  0.1014
18648THY    HM156674   9.262   7.483   3.757  0.3820 -1.5710  0.5970
18648THY    HM256675   9.092   7.504   3.795 -2.4228 -1.9422 -1.1718
18648THY    HM356676   9.140   7.471   3.637  0.0700 -0.0168  0.3968
18648THY    CA656677   9.044   7.243   3.853 -0.0143 -0.5421  0.0796
18648THY    HA656678   8.957   7.302   3.879 -0.4882  1.1128 -1.2643
18649THY      O56679   8.661   4.191   1.937 -0.5669  0.2489  0.3937
18649THY     HO56680   8.625   4.107   1.970 -0.3400  0.8719  0.5364
18649THY    CA156681   8.789   4.174   1.917 -0.2211 -0.1239  0.2985
18649THY    CA256682   8.877   4.273   1.869  0.6585 -1.0042  0.1634
18649THY    CP156683   8.818   4.415   1.829  0.1370 -0.2643  0.3956
18649THY    HP156684   8.715   4.425   1.866  0.1256 -0.1907  0.0015
18649THY    CP256685   8.825   4.431   1.675 -1.3299 -0.6183  0.3907
18649THY    HP256686   8.926   4.450   1.637 -0.2082  1.1036 -1.6918
18649THY    HP356687   8.762   4.515   1.644 -1.1140 -0.0840  0.7546
18649THY    HP456688   8.801   4.330   1.638 -0.1675 -0.8991  0.2060
18649THY    CP356689   8.893   4.529   1.885 -0.0214 -0.1456 -0.1318
18649THY    HP556690   8.915   4.521   1.992  3.6809 -0.7849 -0.2293
18649THY    HP656691   8.844   4.625   1.860 -0.0150 -1.2136 -0.3914
18649THY    HP756692   8.990   4.532   1.835 -0.4949 -1.0652  0.5870
18649THY    CA356693   9.015   4.252   1.868 -0.0202 -0.0284 -0.0851
18649THY    HA356694   9.076   4.338   1.847 -2.1627  0.2024  1.5714
18649THY    CA456695   9.056   4.127   1.914  0.4711 -0.0886  0.1544
18649THY    HA456696   9.163   4.109   1.906  0.5343  1.7586 -0.5573
18649THY    CA556697   8.970   4.016   1.936  0.0481 -0.9900 -0.3274
18649THY    CM156698   9.028   3.885   1.980  0.7252  0.3258 -0.2159
18649THY    HM156699   8.943   3.817   1.979 -0.9224  1.4298  1.6989
18649THY    HM256700   9.071   3.883   2.081  0.3558  0.5005  0.3594
18649THY    HM356701   9.103   3.852   1.906  0.1786 -1.0264  1.4143
18649THY    CA656702   8.837   4.045   1.941  0.0334  1.1920  0.4503
18649THY    HA656703   8.765   3.970   1.974 -0.0430 -1.3847 -0.6878
18650THY      O56704   2.113   6.496   2.588 -0.0612 -0.1030 -0.0204
18650THY     HO56705   2.126   6.449   2.504 -2.0299 -1.2814  1.3619
18650THY    CA156706   2.187   6.612   2.587  0.0914  0.0797  0.7180
18650THY    CA256707   2.204   6.693   2.705 -0.0606 -0.4380  0.2533
18650THY    CP156708   2.146   6.644   2.835  0.1409  0.1092 -0.0881
18650THY    HP156709   2.067   6.575   2.804 -0.0647  2.4498 -0.9996
18650THY    CP256710   2.079   6.762   2.915  1.0593 -0.6125  0.5453
18650THY    HP256711   2.020   6.727   3.001  2.5713  0.6605  1.0090
18650THY    HP356712   2.021   6.822   2.844  1.8583 -1.6542  0.1082
18650THY    HP456713   2.156   6.825   2.961  0.6938  1.6661 -0.5364
18650THY    CP356714   2.249   6.572   2.922 -0.2360 -0.1326  0.3001
18650THY    HP556715   2.208   6.499   2.993 -3.8145 -1.5126  0.7889
18650THY    HP656716   2.295   6.647   2.987 -0.6730  3.2508 -2.1113
18650THY    HP756717   2.328   6.528   2.859  1.7956  1.3575  1.6224
18650THY    CA356718   2.279   6.816   2.690  0.4607 -0.0833  0.4333
18650THY    HA356719   2.294   6.875   2.780 -1.4718  0.8335 -0.3651
18650THY    CA456720   2.321   6.856   2.562 -0.0464 -0.1099  0.9049
18650THY    HA456721   2.365   6.953   2.545  1.6777  0.4066  0.2545
18650THY    CA556722   2.291   6.770   2.449 -0.3681 -0.1678  0.5302
18650THY    CM156723   2.343   6.798   2.308 -0.2385  0.0329 -0.2931
18650THY    HM156724   2.421   6.726   2.282  0.4132  0.9668  0.0521
18650THY    HM256725   2.389   6.897   2.299 -0.1546  1.6205 -0.1568
18650THY    HM356726   2.265   6.781   2.233  1.5147 -1.2728 -3.3891
18650THY    CA656727   2.220   6.651   2.461 -0.3417  0.3269 -0.1417
18650THY    HA656728   2.200   6.585   2.377 -1.0406  1.0234 -0.8298
18651THY      O56729   1.190   9.148   7.200  0.2696 -0.7688 -0.8089
18651THY     HO56730   1.202   9.243   7.213 -2.0389  1.5085 -0.7223
18651THY    CA156731   1.206   9.099   7.322  0.2676  0.5095  0.2387
18651THY    CA256732   1.114   9.002   7.367 -0.2451 -0.2047  0.0089
18651THY    CP156733   0.986   8.961   7.292  0.5499  0.1266 -0.3125
18651THY    HP156734   1.019   8.963   7.187  0.5647  0.1432  0.9876
18651THY    CP256735   0.872   9.062   7.301  0.6578  0.6141  0.1236
18651THY    HP256736   0.799   9.021   7.231  2.2224 -1.5580  0.8981
18651THY    HP356737   0.900   9.157   7.255  1.6279 -0.3893 -0.6290
18651THY    HP456738   0.838   9.086   7.403 -0.1087 -0.0187  1.8626
18651THY    CP356739   0.932   8.818   7.303  0.6459 -0.0059  0.1129
18651THY    HP556740   1.020   8.754   7.290 -0.2524  0.4013 -1.2374
18651THY    HP656741   0.847   8.806   7.234  0.7263  0.2239 -2.1504
18651THY    HP756742   0.888   8.803   7.402 -0.3621 -0.4453  0.1086
18651THY    CA356743   1.131   8.947   7.496  1.0550 -0.3306 -0.2079
18651THY    HA356744   1.052   8.886   7.540 -0.1625 -1.6620  0.3430
18651THY    CA456745   1.239   8.983   7.570 -0.2906  0.4319  0.0060
18651THY    HA456746   1.247   8.963   7.677  0.3091  1.1634  3.5187
18651THY    CA556747   1.347   9.063   7.514 -0.1041 -0.2408  0.8629
18651THY    CM156748   1.466   9.096   7.600 -0.1313  0.8408 -0.2700
18651THY    HM156749   1.512   9.001   7.626 -0.8878  2.5942 -0.1964
18651THY    HM256750   1.441   9.143   7.696  3.2941  1.6257  0.1865
18651THY    HM356751   1.531   9.168   7.549  1.9075 -0.7636 -3.0473
18651THY    CA656752   1.327   9.121   7.392  0.7240 -1.5375  0.5269
18651THY    HA656753   1.382   9.206   7.354 -0.7491 -2.0626  1.2854
18652THY      O56754   8.754   5.142   2.512 -0.6932  0.0366 -0.1822
18652THY     HO56755   8.811   5.219   2.497 -0.3853  0.6294 -0.2883
18652THY    CA156756   8.654   5.186   2.594  0.3007 -0.3397  0.8965
18652THY    CA256757   8.562   5.098   2.658  0.3016  0.2952  0.1420
18652THY    CP156758   8.562   4.952   2.618 -0.0700  0.5368  0.0736
18652THY    HP156759   8.646   4.920   2.555  1.4427  1.1604  2.5688
18652THY    CP256760   8.431   4.926   2.553  1.0287  0.3381 -0.6054
18652THY    HP256761   8.429   4.820   2.524  2.1141 -1.7588 -0.1166
18652THY    HP356762   8.433   4.987   2.462  0.4779  1.6487  1.4455
18652THY    HP456763   8.346   4.954   2.615  0.8013  0.0195 -0.5835
18652THY    CP356764   8.579   4.866   2.738  0.6326 -0.6141 -0.0549
18652THY    HP556765   8.665   4.895   2.799 -1.3728  1.6253  1.5464
18652THY    HP656766   8.589   4.761   2.707 -2.0498  2.6263 -1.4457
18652THY    HP756767   8.497   4.891   2.806 -0.2603 -1.9815  0.8852
18652THY    CA356768   8.472   5.156   2.741 -0.6297  0.1146 -0.0015
18652THY    HA356769   8.408   5.089   2.799  0.2762  0.7030 -0.3679
18652THY    CA456770   8.463   5.298   2.761 -0.2445  0.7007  0.2681
18652THY    HA456771   8.394   5.341   2.834 -0.8954 -0.5862  1.4768
18652THY    CA556772   8.563   5.380   2.707  0.1901 -0.0565 -0.6580
18652THY    CM156773   8.574   5.529   2.748 -0.3163 -0.0190 -0.0660
18652THY    HM156774   8.480   5.570   2.709 -0.6128  0.4265 -0.3151
18652THY    HM256775   8.644   5.588   2.687 -3.1905 -2.3183  1.2139
18652THY    HM356776   8.595   5.543   2.855  1.0612 -0.1711 -0.7905
18652THY    CA656777   8.655   5.326   2.621  0.0547  0.4799  0.6031
18652THY    HA656778   8.732   5.389   2.578 -0.1078 -0.1095  0.4101
18653THY      O56779   0.890   3.481   6.259  0.2831  0.3695 -0.1400
18653THY     HO56780   0.958   3.420   6.293 -0.2359  0.6298 -0.5826
18653THY    CA156781   0.781   3.484   6.330 -0.1735  0.5258 -0.1327
18653THY    CA256782   0.696   3.591   6.333 -0.0623 -0.2127 -1.0535
18653THY    CP156783   0.718   3.708   6.237  0.0679 -0.2044 -0.6341
18653THY    HP156784   0.759   3.659   6.148 -0.9814 -0.2762 -1.4188
18653THY    CP256785   0.818   3.813   6.290  0.2421 -0.0520 -0.3054
18653THY    HP256786   0.917   3.765   6.296 -0.2901  0.8922 -1.3457
18653THY    HP356787   0.772   3.837   6.387 -0.6660  0.8481 -4.7542
18653THY    HP456788   0.833   3.890   6.214 -0.0342 -0.0937 -0.2920
18653THY    CP356789   0.587   3.783   6.194  0.5430 -0.4705  0.2003
18653THY    HP556790   0.622   3.858   6.122  1.5401  0.6069  0.8256
18653THY    HP656791   0.531   3.822   6.281 -0.9452 -0.3413 -2.0590
18653THY    HP756792   0.525   3.719   6.131  2.0985 -2.0653  0.1911
18653THY    CA356793   0.590   3.587   6.430 -0.1716 -0.4596  0.5824
18653THY    HA356794   0.519   3.669   6.442 -1.8976 -1.0434 -0.7462
18653THY    CA456795   0.576   3.474   6.511  1.0187  0.4777 -0.0538
18653THY    HA456796   0.501   3.470   6.590  1.4147  0.8876  0.4207
18653THY    CA556797   0.652   3.363   6.494  0.2214  0.3243 -0.2021
18653THY    CM156798   0.631   3.235   6.574  0.4378 -0.3108 -0.1526
18653THY    HM156799   0.606   3.150   6.509  0.1828 -0.8193  0.3030
18653THY    HM256800   0.545   3.250   6.642  0.5898 -0.3674  1.1197
18653THY    HM356801   0.723   3.217   6.631  0.1013  0.1416 -0.4851
18653THY    CA656802   0.763   3.371   6.412 -0.0396  0.7903  0.5472
18653THY    HA656803   0.839   3.293   6.417  1.8280 -1.3692  2.0952
18654THY      O56804   6.564   9.531   5.620  0.5086  0.1838 -0.3990
18654THY     HO56805   6.505   9.560   5.692 -4.5719 -3.2476 -0.7689
18654THY    CA156806   6.668   9.465   5.673 -0.4563  0.6190  0.2292
18654THY    CA256807   6.761   9.399   5.588  0.1634  0.5741  0.4479
18654THY    CP156808   6.748   9.407   5.435  0.0351 -0.5776 -0.6997
18654THY    HP156809   6.680   9.488   5.406  1.0106  0.2961  0.4907
18654THY    CP256810   6.688   9.284   5.377 -0.5957  0.7008 -0.3868
18654THY    HP256811   6.678   9.303   5.269 -0.1459  0.7109 -0.0769
18654THY    HP356812   6.594   9.263   5.429 -0.6705  0.4815 -0.5980
18654THY    HP456813   6.760   9.203   5.394 -2.6260 -0.4672 -2.5715
18654THY    CP356814   6.880   9.442   5.366  0.0463 -0.1432  0.1561
18654THY    HP556815   6.943   9.518   5.414 -0.4837 -1.9505  1.8333
18654THY    HP656816   6.860   9.465   5.260 -2.4355 -0.0194 -1.0589
18654THY    HP756817   6.934   9.347   5.361 -1.6808  2.8081 -1.1283
18654THY    CA356818   6.859   9.313   5.644  0.0959  0.4918 -0.2324
18654THY    HA356819   6.932   9.259   5.585  0.1313  1.2691 -1.0529
18654THY    CA456820   6.859   9.300   5.783  0.4116 -0.0177 -0.2770
18654THY    HA456821   6.936   9.239   5.831  0.0702  0.0297 -0.6703
18654THY    CA556822   6.773   9.374   5.870  0.2800  0.2448 -0.4104
18654THY    CM156823   6.781   9.365   6.016 -0.5451  0.3385 -0.0161
18654THY    HM156824   6.742   9.269   6.053 -1.5671 -2.7690 -0.9052
18654THY    HM256825   6.723   9.445   6.064 -0.7683  3.1856 -1.7272
18654THY    HM356826   6.886   9.385   6.040 -0.1261 -1.0330 -0.4891
18654THY    CA656827   6.673   9.453   5.815  0.2989 -0.0744  0.4963
18654THY    HA656828   6.602   9.501   5.883 -1.1783 -1.8350  0.9246
18655THY      O56829   4.953   7.386   3.240 -0.4616  0.0696 -0.2627
18655THY     HO56830   4.918   7.324   3.174 -2.1582 -0.3807  1.0995
18655THY    CA156831   5.084   7.347   3.257  0.2000  0.0802 -0.6637
18655THY    CA256832   5.170   7.413   3.343 -0.1281  0.3479 -0.4155
18655THY    CP156833   5.121   7.520   3.443  0.6288  0.6241 -0.4527
18655THY    HP156834   5.012   7.520   3.451  0.3106 -2.5950  0.4278
18655THY    CP256835   5.168   7.657   3.392 -0.3369 -0.1179  0.3847
18655THY    HP256836   5.117   7.736   3.449 -1.1192 -1.1065  0.6141
18655THY    HP356837   5.126   7.675   3.292 -0.5288  0.1649  1.5804
18655THY    HP456838   5.275   7.678   3.399  0.8244 -4.6568 -2.4361
18655THY    CP356839   5.160   7.514   3.602  0.0883  0.6007 -0.2019
18655THY    HP556840   5.260   7.478   3.624 -0.3100 -1.0076 -2.5074
18655THY    HP656841   5.098   7.440   3.654 -0.8889 -1.3375 -0.8112
18655THY    HP756842   5.142   7.613   3.646  1.9260  1.9006 -0.4133
18655THY    CA356843   5.301   7.362   3.362  0.4689  0.0831 -0.2297
18655THY    HA356844   5.368   7.396   3.440  0.9864  0.8451 -2.7925
18655THY    CA456845   5.343   7.258   3.282 -0.6211 -0.6087  0.7210
18655THY    HA456846   5.445   7.224   3.296 -0.5011 -1.4000  0.7206
18655THY    CA556847   5.257   7.193   3.188 -0.5255  0.0475  0.1980
18655THY    CM156848   5.322   7.094   3.088  0.3130  0.3337  0.2128
18655THY    HM156849   5.339   7.141   2.991 -0.7260  0.8816  1.7899
18655THY    HM256850   5.249   7.015   3.065 -0.4030 -2.3184  1.5456
18655THY    HM356851   5.414   7.056   3.133  0.4461 -0.4634 -0.4550
18655THY    CA656852   5.126   7.240   3.179  0.2123  0.7271  0.4135
18655THY    HA656853   5.062   7.196   3.103  1.4873 -0.0300 -0.1854
18656THY      O56854   6.705   3.167   7.772 -0.4939  0.5587  0.0612
18656THY     HO56855   6.675   3.242   7.718 -1.4688 -0.3679 -0.9615
18656THY    CA156856   6.768   3.082   7.683 -0.3318 -0.2969  0.1579
18656THY    CA256857   6.726   2.950   7.670 -0.3427 -0.1917 -0.0518
18656THY    CP156858   6.626   2.888   7.776  0.3317 -0.2497  0.1153
18656THY    HP156859   6.580   2.964   7.840  0.7955  2.7101 -1.9219
18656THY    CP256860   6.696   2.798   7.880 -0.0266  0.2290 -0.0160
18656THY    HP256861   6.739   2.723   7.814 -0.6764 -0.5694  0.2990
18656THY    HP356862   6.630   2.759   7.958  0.1766  0.7866  0.7241
18656THY    HP456863   6.772   2.854   7.936 -1.7592  1.7177  0.9835
18656THY    CP356864   6.497   2.823   7.709 -0.3834  0.3029  0.2282
18656THY    HP556865   6.419   2.835   7.785  0.1495  0.6082  2.1223
18656THY    HP656866   6.500   2.716   7.685 -2.6127 -0.3056  0.2507
18656THY    HP756867   6.466   2.878   7.619  0.8761 -1.7021 -2.1540
18656THY    CA356868   6.790   2.875   7.566  0.7121 -0.3235  0.1973
18656THY    HA356869   6.772   2.769   7.551  0.4481 -2.6257  0.5238
18656THY    CA456870   6.874   2.941   7.470  0.2723  0.1070 -0.5431
18656THY    HA456871   6.925   2.892   7.387 -0.7579 -0.7883 -0.1447
18656THY    CA556872   6.905   3.082   7.482 -1.1663 -1.2183  0.7573
18656THY    CM156873   7.001   3.147   7.387  0.3570  0.6801 -0.8186
18656THY    HM156874   6.979   3.126   7.282 -0.4494  0.0668  2.4462
18656THY    HM256875   7.101   3.112   7.416  0.4063  1.8668  0.2223
18656THY    HM356876   7.014   3.256   7.395 -1.3779  0.0172 -0.5278
18656THY    CA656877   6.844   3.150   7.585  0.9624  0.4519  0.2285
18656THY    HA656878   6.870   3.256   7.581 -1.0956  1.5125  0.8165
18657THY      O56879   2.051   1.985   3.475  0.0851 -0.8028 -0.6034
18657THY     HO56880   2.043   1.898   3.518  1.0024  1.0203  0.1579
18657THY    CA156881   2.180   1.982   3.441 -0.4471  0.4819  0.7975
18657THY    CA256882   2.228   2.062   3.334  0.3454  0.8496  0.0851
18657THY    CP156883   2.129   2.120   3.237 -0.3306  0.9580  0.0838
18657THY    HP156884   2.038   2.153   3.288 -0.7794  0.4627 -0.3653
18657THY    CP256885   2.101   2.016   3.124 -0.0281  0.2571 -0.4044
18657THY    HP256886   2.043   1.934   3.167 -0.9095  0.9539  0.5641
18657THY    HP356887   2.197   1.993   3.076  0.0133  0.6890 -1.1317
18657THY    HP456888   2.042   2.051   3.038 -1.3805  1.3394  0.0387
18657THY    CP356889   2.167   2.247   3.161  0.8695 -0.5601 -0.1043
18657THY    HP556890   2.235   2.303   3.225 -0.2569 -0.9432  1.7767
18657THY    HP656891   2.074   2.302   3.144  1.0126  0.7507  0.5785
18657THY    HP756892   2.228   2.217   3.075  0.4274 -0.2905 -1.9400
18657THY    CA356893   2.363   2.055   3.307 -0.1470  0.3524 -0.6520
18657THY    HA356894   2.409   2.113   3.228 -2.2504  0.8825  1.9506
18657THY    CA456895   2.448   1.993   3.400  0.2108 -0.3831  0.3059
18657THY    HA456896   2.553   1.979   3.378  0.2354  1.0503 -2.4586
18657THY    CA556897   2.397   1.925   3.508 -0.2328 -0.5684 -1.0027
18657THY    CM156898   2.482   1.839   3.602  0.1483 -0.5615 -0.2990
18657THY    HM156899   2.471   1.730   3.602  0.7498 -2.0535 -0.3875
18657THY    HM256900   2.468   1.878   3.703 -0.2075  0.1614 -2.2020
18657THY    HM356901   2.586   1.864   3.577  0.1226  0.1884  0.6015
18657THY    CA656902   2.262   1.912   3.521  0.4045  0.3026  0.3053
18657THY    HA656903   2.223   1.852   3.603 -0.9059 -0.5921 -0.1213
18658THY      O56904   1.004   4.560   4.882 -0.0261  0.1383  0.1761
18658THY     HO56905   1.018   4.470   4.917 -0.8924 -1.5244 -0.6657
18658THY    CA156906   1.125   4.614   4.899  0.9672 -0.0976  0.2025
18658THY    CA256907   1.168   4.732   4.841 -0.5463  0.0357  0.3237
18658THY    CP156908   1.086   4.823   4.756 -0.7779  0.3559  0.0220
18658THY    HP156909   0.988   4.778   4.733 -0.5434 -1.4550  0.3381
18658THY    CP256910   1.135   4.847   4.611 -1.3140  0.3667  0.6228
18658THY    HP256911   1.184   4.755   4.576 -0.2012  0.6837  1.0673
18658THY    HP356912   1.214   4.924   4.616 -0.3342  1.0588 -0.3894
18658THY    HP456913   1.057   4.887   4.546 -1.2666  0.6643  1.2121
18658THY    CP356914   1.068   4.957   4.820 -0.4151 -0.8329  0.6378
18658THY    HP556915   0.999   5.014   4.757  0.2788 -0.6101  1.7534
18658THY    HP656916   1.157   5.021   4.812 -0.7510  0.9475  1.3820
18658THY    HP756917   1.037   4.952   4.925  2.7792  0.2672  1.2275
18658THY    CA356918   1.304   4.778   4.858  0.3547  0.4989  0.0682
18658THY    HA356919   1.332   4.878   4.829  1.3699  0.9011 -0.0866
18658THY    CA456920   1.383   4.700   4.940 -0.2627  0.3968  0.0255
18658THY    HA456921   1.483   4.738   4.959  0.0926 -1.6988  0.3006
18658THY    CA556922   1.342   4.580   4.983 -0.5613 -0.7248 -0.1275
18658THY    CM156923   1.442   4.496   5.059 -0.7512 -0.7670  0.3586
18658THY    HM156924   1.426   4.510   5.166  1.7825 -0.3512  0.4624
18658THY    HM256925   1.545   4.509   5.026  0.2963  2.3143  0.4911
18658THY    HM356926   1.427   4.392   5.026  1.0246 -1.6623  0.3566
18658THY    CA656927   1.214   4.533   4.958 -0.4558 -0.2928 -0.0537
18658THY    HA656928   1.195   4.431   4.990 -0.9221  1.5694  0.5959
18659THY      O56929   5.425   9.025   6.687  0.3147 -0.3819 -0.3022
18659THY     HO56930   5.461   8.990   6.770  1.4552  0.6841  3.0014
18659THY    CA156931   5.449   8.932   6.588 -0.4538  0.5725  0.4693
18659THY    CA256932   5.395   8.941   6.459  0.5435 -0.2335  0.4917
18659THY    CP156933   5.308   9.069   6.431 -0.3182  0.5963  1.0241
18659THY    HP156934   5.360   9.148   6.487  1.5996  1.4060 -0.7124
18659THY    CP256935   5.168   9.057   6.494  0.1284  0.0031  0.4047
18659THY    HP256936   5.103   9.132   6.448 -2.2032  1.9948 -0.2743
18659THY    HP356937   5.176   9.085   6.600  3.7421  0.2286 -0.9657
18659THY    HP456938   5.125   8.957   6.500  2.5799  0.3127 -0.7141
18659THY    CP356939   5.288   9.104   6.277  0.8147  0.8160  0.0957
18659THY    HP556940   5.227   9.195   6.274 -2.1631  1.8675 -1.7255
18659THY    HP656941   5.235   9.029   6.218 -0.6550  0.0801  1.6376
18659THY    HP756942   5.383   9.128   6.229 -0.6152 -2.1851  0.2126
18659THY    CA356943   5.424   8.851   6.351  0.7387 -0.5857  0.4359
18659THY    HA356944   5.378   8.866   6.254  0.1918 -0.1768  1.5446
18659THY    CA456945   5.510   8.743   6.379  0.5994  0.8873  0.4190
18659THY    HA456946   5.528   8.666   6.304  1.0224  0.8668  0.5384
18659THY    CA556947   5.575   8.738   6.499  0.5168 -1.0298  0.1943
18659THY    CM156948   5.659   8.620   6.522 -0.2648  0.4068 -0.3066
18659THY    HM156949   5.738   8.650   6.592 -1.4515  1.7353 -0.1970
18659THY    HM256950   5.722   8.609   6.433  0.8517  1.3379 -2.0029
18659THY    HM356951   5.607   8.524   6.535 -3.4477  1.0320  1.3821
18659THY    CA656952   5.546   8.833   6.604 -0.9230  0.5151 -0.7125
18659THY    HA656953   5.606   8.827   6.695  0.0210 -0.0436 -0.0071
18660THY      O56954   3.856   1.500   5.727 -0.2065 -0.5765 -0.1767
18660THY     HO56955   3.858   1.534   5.636  1.1101 -1.2896 -2.0128
18660THY    CA156956   3.799   1.375   5.703 -0.3244  0.5573  0.4362
18660THY    CA256957   3.734   1.297   5.803  0.2430  0.3257 -0.3626
18660THY    CP156958   3.738   1.354   5.950  0.2864  0.2964  0.1080
18660THY    HP156959   3.736   1.464   5.945  1.8614  0.8284  0.1782
18660THY    CP256960   3.866   1.313   6.011 -0.0901 -0.3613  0.3795
18660THY    HP256961   3.880   1.204   6.002  0.0749  1.0494  0.2580
18660THY    HP356962   3.866   1.342   6.117 -1.5743 -0.3562  0.4504
18660THY    HP456963   3.951   1.365   5.965  0.2505  1.9903  2.0504
18660THY    CP356964   3.625   1.295   6.033 -0.3215 -0.0261 -0.3021
18660THY    HP556965   3.616   1.351   6.127 -1.9919 -1.6770  2.4467
18660THY    HP656966   3.650   1.191   6.055 -0.4772 -0.0634 -0.3466
18660THY    HP756967   3.530   1.311   5.981  0.4565 -2.0474 -1.8558
18660THY    CA356968   3.683   1.171   5.771  1.0470 -0.1495 -0.3383
18660THY    HA356969   3.636   1.118   5.853 -0.2945  0.5550  1.7915
18660THY    CA456970   3.690   1.130   5.640  0.2849 -0.1274 -0.1920
18660THY    HA456971   3.632   1.043   5.610 -1.8963  0.1677  1.0813
18660THY    CA556972   3.760   1.206   5.539 -0.2236 -0.5125 -0.2898
18660THY    CM156973   3.774   1.165   5.395 -0.2433  0.7351  0.3328
18660THY    HM156974   3.713   1.227   5.328  0.7392 -1.3693 -0.8631
18660THY    HM256975   3.750   1.058   5.396  1.3518  0.8731 -0.0519
18660THY    HM356976   3.879   1.170   5.365 -0.3570  0.4816  1.4736
18660THY    CA656977   3.804   1.331   5.574 -0.3780  0.2784  0.5900
18660THY    HA656978   3.854   1.392   5.499  1.1280  0.2412 -0.6245
18661THY      O56979   2.997   9.006   3.186 -0.4518 -0.3300 -0.5122
18661THY     HO56980   2.933   8.954   3.237 -2.1229 -0.6357  1.1210
18661THY    CA156981   3.117   8.940   3.186  0.0255 -0.1176  0.3015
18661THY    CA256982   3.240   8.997   3.211  0.0153 -0.1399  0.0728
18661THY    CP156983   3.249   9.148   3.223 -0.4465 -0.3778 -0.4035
18661THY    HP156984   3.183   9.185   3.143 -2.6871  0.5659 -2.1124
18661THY    CP256985   3.390   9.210   3.203 -0.4603 -0.1404  0.5322
18661THY    HP256986   3.419   9.168   3.106  0.5097  0.9993 -1.6468
18661THY    HP356987   3.465   9.176   3.276  1.6376 -2.7081 -0.7980
18661THY    HP456988   3.387   9.319   3.196 -2.0028  1.2188  0.6147
18661THY    CP356989   3.205   9.209   3.359  0.0014 -0.2437 -0.2599
18661THY    HP556990   3.267   9.161   3.436 -0.8386 -0.1731 -1.2496
18661THY    HP656991   3.101   9.185   3.381 -0.0729  0.7673  0.8926
18661THY    HP756992   3.208   9.319   3.358 -1.8776 -0.9986 -0.1825
18661THY    CA356993   3.350   8.912   3.242 -0.3919  0.1939 -0.1520
18661THY    HA356994   3.446   8.952   3.271 -1.1453  2.0937  0.3543
18661THY    CA456995   3.337   8.772   3.234  0.5114 -0.3430  0.3033
18661THY    HA456996   3.419   8.706   3.259 -0.0519 -0.6577 -0.5224
18661THY    CA556997   3.218   8.715   3.208 -0.1099  0.2204  0.0105
18661THY    CM156998   3.203   8.568   3.233 -0.0619  0.4473 -0.7265
18661THY    HM156999   3.105   8.528   3.205 -0.8171  2.7602 -0.6095
18661THY    HM257000   3.209   8.548   3.340  0.4119  0.5800  0.0653
18661THY    HM357001   3.289   8.518   3.187  0.8776 -0.8912  1.9432
18661THY    CA657002   3.105   8.801   3.183  0.1221 -0.2193  0.2688
18661THY    HA657003   3.006   8.759   3.170  0.8658 -1.2808 -1.2381
18662THY      O57004   7.328   6.911   3.925 -0.2471  0.0946 -0.6292
18662THY     HO57005   7.302   6.956   4.007 -0.2996  1.1743 -2.5376
18662THY    CA157006   7.296   6.994   3.818 -0.4301 -0.5247  0.3324
18662THY    CA257007   7.290   7.132   3.834  0.1675  0.0613 -0.1506
18662THY    CP157008   7.314   7.197   3.976 -0.5531  0.2566  0.3298
18662THY    HP157009   7.329   7.127   4.059  0.4763  0.8739  1.2527
18662THY    CP257010   7.205   7.295   4.024 -0.6006  0.1089  0.4451
18662THY    HP257011   7.105   7.255   4.047 -0.3063  0.8205  0.1116
18662THY    HP357012   7.190   7.375   3.951  1.7801  0.0800  0.9167
18662THY    HP457013   7.244   7.340   4.115 -0.6387 -0.5508  1.8498
18662THY    CP357014   7.444   7.281   3.977  0.2903  0.0922  0.0205
18662THY    HP557015   7.428   7.387   3.951 -0.3961 -1.1053 -0.3593
18662THY    HP657016   7.520   7.252   3.904 -0.5835 -1.2389  0.9667
18662THY    HP757017   7.496   7.273   4.073  0.5324  0.0084  0.5522
18662THY    CA357018   7.270   7.214   3.717  0.2409 -0.7262  0.0695
18662THY    HA357019   7.270   7.322   3.721  0.2545  2.0850  0.0287
18662THY    CA457020   7.245   7.147   3.593 -0.7335  0.8134 -0.5542
18662THY    HA457021   7.216   7.208   3.508  2.0033  0.2613  0.1057
18662THY    CA557022   7.257   7.005   3.587  0.9591  0.2934  0.3557
18662THY    CM157023   7.247   6.937   3.457  0.2706  0.4403 -0.2551
18662THY    HM157024   7.340   6.925   3.401 -0.3227 -0.4000 -1.1345
18662THY    HM257025   7.179   6.978   3.381  0.3759  0.6944  0.3947
18662THY    HM357026   7.220   6.833   3.476  0.4853 -0.8339 -0.5635
18662THY    CA657027   7.279   6.929   3.699 -0.4706 -0.2649 -0.5152
18662THY    HA657028   7.307   6.825   3.700  1.6061  0.3548  0.0009
18663THY      O57029   6.734   4.782   5.296  0.2287  0.2832  0.2572
18663THY     HO57030   6.763   4.698   5.256 -0.6460 -1.2344  0.6486
18663THY    CA157031   6.849   4.828   5.354  0.2194 -0.4641 -0.6569
18663THY    CA257032   6.859   4.957   5.401 -0.5616 -0.4189 -0.3043
18663THY    CP157033   6.733   5.052   5.406 -0.2546  0.3647 -0.0180
18663THY    HP157034   6.648   4.988   5.380 -1.0755  1.1458  0.7266
18663THY    CP257035   6.739   5.169   5.305 -0.5553  0.8978  0.0389
18663THY    HP257036   6.831   5.228   5.298 -0.2631 -3.2223 -0.5833
18663THY    HP357037   6.667   5.249   5.323 -0.6200  0.4418  0.0910
18663THY    HP457038   6.734   5.124   5.205  0.5353  0.6675  0.4045
18663THY    CP357039   6.707   5.107   5.546  0.5980 -0.0976 -0.0874
18663THY    HP557040   6.728   5.032   5.623  2.4760 -0.3936  0.0818
18663THY    HP657041   6.607   5.150   5.553  1.5757 -3.1789  3.1844
18663THY    HP757042   6.784   5.185   5.550  3.2426 -2.9404 -2.2911
18663THY    CA357043   6.986   5.006   5.451  0.1737  0.2482  0.1593
18663THY    HA357044   6.994   5.107   5.489  0.9712  0.6672 -0.0525
18663THY    CA457045   7.089   4.920   5.467  0.4426 -0.2891 -0.3627
18663THY    HA457046   7.185   4.953   5.506 -0.2231  0.7606  0.4275
18663THY    CA557047   7.072   4.786   5.434  0.5049  0.5438 -0.1140
18663THY    CM157048   7.175   4.680   5.473  0.3498  0.2474 -0.1916
18663THY    HM157049   7.214   4.615   5.394 -0.5515  0.7087 -1.3273
18663THY    HM257050   7.136   4.612   5.550 -2.4753  0.1241  1.1529
18663THY    HM357051   7.253   4.736   5.526  1.4567 -0.9790 -0.5303
18663THY    CA657052   6.954   4.741   5.384  0.0473  0.2213 -0.2836
18663THY    HA657053   6.942   4.638   5.352 -2.1402 -0.8182  0.2245
18664THY      O57054   1.272   3.622   2.689  0.4934 -0.3765  0.5152
18664THY     HO57055   1.185   3.582   2.675 -0.4237  2.5696  1.2166
18664THY    CA157056   1.246   3.740   2.744  0.1155  0.1105  0.0576
18664THY    CA257057   1.349   3.814   2.806 -0.1640  0.6304 -0.1191
18664THY    CP157058   1.481   3.752   2.833 -0.3825 -0.2702 -0.8518
18664THY    HP157059   1.507   3.691   2.746 -0.6739 -2.0442  1.3882
18664THY    CP257060   1.487   3.669   2.968 -0.0346  0.4340 -0.1598
18664THY    HP257061   1.581   3.616   2.986 -1.6923  0.0401 -3.4680
18664THY    HP357062   1.405   3.599   2.986 -0.3331 -1.3748 -0.3357
18664THY    HP457063   1.488   3.734   3.056  1.0389 -0.3364  0.9130
18664THY    CP357064   1.606   3.845   2.836 -0.3074  1.0375  0.0548
18664THY    HP557065   1.619   3.915   2.919  1.4402  0.9241 -0.0926
18664THY    HP657066   1.605   3.916   2.752  0.2183  0.2080 -0.8978
18664THY    HP757067   1.702   3.793   2.824 -0.5649  1.5076 -0.5380
18664THY    CA357068   1.321   3.940   2.858  0.0747 -0.6918 -0.8955
18664THY    HA357069   1.389   4.002   2.916 -1.2693  1.3975 -1.2992
18664THY    CA457070   1.184   3.984   2.854 -0.0090  0.0718  0.1899
18664THY    HA457071   1.151   4.075   2.901  2.9025 -0.4498  1.6359
18664THY    CA557072   1.087   3.914   2.777  0.0299  0.5526 -0.9273
18664THY    CM157073   0.948   3.971   2.765 -0.1291  0.4184 -0.0432
18664THY    HM157074   0.880   3.890   2.738  1.7315 -1.8949 -0.9417
18664THY    HM257075   0.956   4.043   2.683  1.6742 -0.8768 -1.6321
18664THY    HM357076   0.917   4.017   2.860 -2.4834  0.0423 -0.7073
18664THY    CA657077   1.114   3.786   2.732  0.0949 -0.0406  1.0813
18664THY    HA657078   1.042   3.726   2.677  0.6026  0.1101  0.3172
18665THY      O57079   6.970   6.820   5.460  0.2095  0.3875 -0.5089
18665THY     HO57080   7.057   6.794   5.497 -0.8099  1.9998 -1.8445
18665THY    CA157081   6.977   6.950   5.433 -0.1854  0.3196 -0.1341
18665THY    CA257082   6.860   7.015   5.379  0.1458  0.1454 -0.3752
18665THY    CP157083   6.739   6.937   5.339 -0.0433  0.9743 -0.5028
18665THY    HP157084   6.746   6.833   5.374  0.2095 -0.3451 -0.9552
18665THY    CP257085   6.732   6.926   5.187 -0.5474 -0.0988  0.0930
18665THY    HP257086   6.824   6.879   5.151  0.2815  1.3401  0.5648
18665THY    HP357087   6.698   7.022   5.145 -0.0890  2.1613  1.3118
18665THY    HP457088   6.662   6.848   5.157  0.1813 -1.7967  0.0287
18665THY    CP357089   6.607   6.981   5.394  0.4451  0.8892  0.7261
18665THY    HP557090   6.616   6.972   5.502 -0.1570  0.7804 -2.2556
18665THY    HP657091   6.524   6.917   5.363  0.5937 -1.1060  1.4275
18665THY    HP757092   6.584   7.079   5.350 -1.1046  1.5844  0.6964
18665THY    CA357093   6.862   7.152   5.354 -0.1538 -0.1478  0.1856
18665THY    HA357094   6.768   7.197   5.323 -0.0706 -1.1115 -0.2747
18665THY    CA457095   6.987   7.221   5.370  0.5957 -0.6133  0.2579
18665THY    HA457096   6.983   7.329   5.363  2.0800 -2.0985  0.2494
18665THY    CA557097   7.102   7.156   5.421 -0.3088 -0.1767  0.6395
18665THY    CM157098   7.233   7.231   5.444 -0.3529  1.1058 -0.0293
18665THY    HM157099   7.226   7.249   5.551  0.2703  1.3755 -1.3083
18665THY    HM257100   7.239   7.328   5.394 -0.9046  1.3750  0.1427
18665THY    HM357101   7.322   7.171   5.421 -0.8989 -0.3743 -0.3116
18665THY    CA657102   7.092   7.022   5.457 -0.3307 -0.0926 -0.5969
18665THY    HA657103   7.180   6.974   5.499  2.0038 -2.9110  0.8909
18666THY      O57104   8.092   3.983   6.681 -0.1823  0.2900 -0.5690
18666THY     HO57105   8.122   4.057   6.735 -1.7599 -1.0719  1.1760
18666THY    CA157106   8.205   3.918   6.647 -0.2959  0.3356  0.9693
18666THY    CA257107   8.197   3.780   6.642  0.5127 -0.5329  0.9837
18666THY    CP157108   8.087   3.696   6.712  0.1898 -0.4831  0.3827
18666THY    HP157109   7.996   3.755   6.729 -0.7206 -4.0192  0.1871
18666THY    CP257110   8.135   3.646   6.839 -0.3921 -0.6351  0.3548
18666THY    HP257111   8.235   3.604   6.822  0.0367  0.0375  1.0735
18666THY    HP357112   8.076   3.563   6.880 -0.5874  2.8624  2.0319
18666THY    HP457113   8.123   3.722   6.917 -2.3293 -1.2873  0.7623
18666THY    CP357114   8.031   3.577   6.631 -0.0084  0.5070  0.0515
18666THY    HP557115   8.080   3.480   6.642  0.1176 -0.5217 -0.0137
18666THY    HP657116   8.027   3.594   6.522 -0.5228 -0.0405 -2.9349
18666THY    HP757117   7.925   3.562   6.654 -0.7371 -1.5500  1.4965
18666THY    CA357118   8.293   3.706   6.571 -0.6630 -0.5709 -0.7250
18666THY    HA357119   8.285   3.597   6.570  0.4462  1.3803 -0.8728
18666THY    CA457120   8.411   3.773   6.524  0.3292  0.7078  0.5072
18666THY    HA457121   8.488   3.714   6.474 -0.5205 -1.3547  1.0460
18666THY    CA557122   8.422   3.910   6.537  0.7575  0.9520 -0.0650
18666THY    CM157123   8.550   3.988   6.493 -0.4629 -1.4144  0.1846
18666THY    HM157124   8.525   4.092   6.469 -0.7273  1.2911  0.8057
18666THY    HM257125   8.612   3.940   6.416 -0.1336 -1.9582  1.4561
18666THY    HM357126   8.608   3.992   6.586 -0.1774 -1.4710 -1.6076
18666THY    CA657127   8.320   3.979   6.599 -0.1865  0.5617 -0.2909
18666THY    HA657128   8.335   4.086   6.609 -0.9827 -1.1098 -0.0086
18667THY      O57129   4.661   8.860   6.564  0.2388  0.9868  0.3220
18667THY     HO57130   4.639   8.944   6.521 -0.1106  2.3542  0.9602
18667THY    CA157131   4.779   8.823   6.508 -0.0070 -0.0784  0.9646
18667THY    CA257132   4.849   8.706   6.549  0.3253  0.2625 -0.5917
18667THY    CP157133   4.802   8.611   6.651  0.3359 -1.0677 -0.0005
18667THY    HP157134   4.736   8.665   6.720 -0.0205 -2.0360  0.8264
18667THY    CP257135   4.913   8.548   6.742  0.2773 -0.1260  0.5484
18667THY    HP257136   4.967   8.462   6.701  0.4791  0.7245  0.2544
18667THY    HP357137   4.879   8.506   6.838  2.1678 -0.2903 -1.5533
18667THY    HP457138   4.981   8.627   6.775  1.0334 -1.3836  0.4418
18667THY    CP357139   4.720   8.498   6.583 -0.6577  0.3111 -0.7876
18667THY    HP557140   4.641   8.525   6.513 -0.2384 -0.5808 -1.8003
18667THY    HP657141   4.684   8.427   6.659  2.3320 -0.0817 -2.9306
18667THY    HP757142   4.797   8.445   6.525 -1.5128 -2.2482  0.6320
18667THY    CA357143   4.970   8.681   6.482 -0.1696  0.3864  0.5446
18667THY    HA357144   5.027   8.600   6.525  1.4414  3.0318  2.9097
18667THY    CA457145   5.011   8.764   6.375 -0.6262  0.0113 -0.1359
18667THY    HA457146   5.109   8.752   6.331 -0.9203 -0.2298 -1.9332
18667THY    CA557147   4.927   8.867   6.325  0.4837 -0.2868 -0.5505
18667THY    CM157148   4.963   8.953   6.208 -0.1096  0.2916  0.6401
18667THY    HM157149   5.039   8.902   6.147 -0.7263 -0.1631  0.2483
18667THY    HM257150   4.995   9.054   6.238 -0.6095 -1.7538  1.4542
18667THY    HM357151   4.878   8.977   6.142  1.0142 -2.3488 -2.0216
18667THY    CA657152   4.810   8.891   6.394  0.8652  0.1488 -0.7722
18667THY    HA657153   4.750   8.976   6.363  1.7623 -0.6928 -0.4336
18668THY      O57154   3.921   8.755   5.592 -0.0830 -0.8155  0.4008
18668THY     HO57155   3.945   8.720   5.679 -2.1139 -0.6442 -0.7456
18668THY    CA157156   4.016   8.689   5.522  0.2698  1.0073 -0.5178
18668THY    CA257157   4.013   8.689   5.382 -0.3457 -0.0772 -0.4518
18668THY    CP157158   3.900   8.757   5.293  0.1337 -0.4131 -0.1658
18668THY    HP157159   3.826   8.803   5.359  2.4237  1.7824  0.6221
18668THY    CP257160   3.843   8.646   5.199  0.5179 -0.1622 -0.6132
18668THY    HP257161   3.759   8.692   5.146  0.9739  0.6916  1.3316
18668THY    HP357162   3.809   8.561   5.260 -3.5416 -1.1754  0.0938
18668THY    HP457163   3.911   8.608   5.122 -0.3017 -0.1108 -2.2358
18668THY    CP357164   3.959   8.878   5.229  0.6610  0.0149 -0.8761
18668THY    HP557165   4.050   8.870   5.170  0.3710 -0.5933  0.1793
18668THY    HP657166   3.963   8.961   5.300 -2.5687  0.7695 -1.2041
18668THY    HP757167   3.882   8.906   5.156  0.3722  0.8658  0.6952
18668THY    CA357168   4.111   8.602   5.322 -0.2643  0.2589 -0.1319
18668THY    HA357169   4.117   8.591   5.214  0.2201  0.3784 -1.2498
18668THY    CA457170   4.211   8.527   5.390  0.2116  0.0121 -0.1117
18668THY    HA457171   4.285   8.459   5.348  1.6233 -1.8357  2.4030
18668THY    CA557172   4.201   8.533   5.520  0.1957 -0.4226 -0.1853
18668THY    CM157173   4.303   8.465   5.606  0.6180 -0.6278 -0.1587
18668THY    HM157174   4.256   8.455   5.704 -2.6937 -1.8799  1.5407
18668THY    HM257175   4.400   8.514   5.616  0.6989  0.4371 -0.5059
18668THY    HM357176   4.331   8.366   5.566  3.4864  1.2597 -0.2283
18668THY    CA657177   4.101   8.602   5.587 -0.9771  0.2204 -0.2580
18668THY    HA657178   4.111   8.602   5.695  1.0464  0.0971 -1.9152
18669THY      O57179   8.714   2.510   3.766  0.1247  0.8113  0.2895
18669THY     HO57180   8.647   2.576   3.790  1.5934  2.9041  1.1558
18669THY    CA157181   8.809   2.591   3.710  0.2775  0.6426  0.5674
18669THY    CA257182   8.929   2.532   3.660  0.1921 -0.6447 -0.2906
18669THY    CP157183   8.971   2.384   3.699  1.1213 -0.1501  0.1700
18669THY    HP157184   8.895   2.346   3.768 -0.5826 -1.6556  0.7259
18669THY    CP257185   9.107   2.374   3.771  0.0579 -0.3328  0.6008
18669THY    HP257186   9.192   2.409   3.711  0.8741  1.4851  1.8963
18669THY    HP357187   9.120   2.268   3.794 -0.3638 -2.1741  0.1094
18669THY    HP457188   9.116   2.425   3.867  2.3770  1.4693 -2.7608
18669THY    CP357189   8.966   2.297   3.575  0.1749  0.5952 -0.6152
18669THY    HP557190   8.992   2.191   3.582  0.1494 -0.7801 -0.7358
18669THY    HP657191   9.031   2.342   3.498  2.3796  2.5149 -0.3194
18669THY    HP757192   8.866   2.302   3.531  0.0195  1.0585  0.8434
18669THY    CA357193   9.013   2.615   3.576 -0.0643  0.6169 -0.1368
18669THY    HA357194   9.112   2.588   3.541  0.1126  1.3329 -0.4425
18669THY    CA457195   8.983   2.750   3.555  0.2611  0.0862  0.1621
18669THY    HA457196   9.057   2.815   3.508 -1.0106  1.2830  2.6420
18669THY    CA557197   8.860   2.806   3.596 -0.5604  0.2354  0.6877
18669THY    CM157198   8.833   2.945   3.577 -0.0407  0.1347 -0.2743
18669THY    HM157199   8.736   2.973   3.618  0.0716 -0.1583  0.5992
18669THY    HM257200   8.820   2.969   3.471 -0.7173  0.2997  0.1133
18669THY    HM357201   8.908   3.006   3.629 -0.1030  2.1569 -1.8163
18669THY    CA657202   8.777   2.722   3.679  0.2043 -0.1309 -0.6523
18669THY    HA657203   8.686   2.766   3.717 -0.8145 -0.6653 -2.2184
18670THY      O57204   6.567   7.582   7.823  0.0748  0.2960  0.5050
18670THY     HO57205   6.536   7.670   7.853 -0.8229  0.2689  0.2106
18670THY    CA157206   6.705   7.581   7.859 -0.2678  0.1926  0.5436
18670THY    CA257207   6.792   7.475   7.823  0.5385  0.3206  0.6987
18670THY    CP157208   6.742   7.344   7.749 -0.0172 -0.7291 -0.2494
18670THY    HP157209   6.634   7.337   7.765 -0.1330 -0.6042  1.4093
18670THY    CP257210   6.807   7.209   7.797 -0.1172  0.2632  0.0153
18670THY    HP257211   6.900   7.181   7.748 -1.0133 -0.6101 -1.5689
18670THY    HP357212   6.735   7.135   7.760  0.0896 -3.3476  1.4496
18670THY    HP457213   6.812   7.207   7.907 -0.9279  0.3077 -2.1707
18670THY    CP357214   6.761   7.362   7.601  0.3143 -0.1623 -0.4565
18670THY    HP557215   6.757   7.467   7.569  0.2464  0.6185 -0.2126
18670THY    HP657216   6.689   7.299   7.548  0.9733  0.5366 -1.8213
18670THY    HP757217   6.864   7.331   7.580  0.4072 -0.2824 -0.0729
18670THY    CA357218   6.923   7.484   7.866 -0.5614  0.0803  0.6825
18670THY    HA357219   6.994   7.405   7.843 -1.1165  0.7187 -0.0127
18670THY    CA457220   6.961   7.593   7.940  0.1292  0.5178 -0.3079
18670THY    HA457221   7.059   7.595   7.986 -0.3334  1.5152 -0.3827
18670THY    CA557222   6.873   7.695   7.971  0.3444 -0.2728  0.5787
18670THY    CM157223   6.914   7.812   8.063 -0.2697  0.0714  0.3977
18670THY    HM157224   6.967   7.887   8.003  0.3471  0.3480  0.1919
18670THY    HM257225   6.978   7.780   8.146 -0.6532 -0.0211 -0.6562
18670THY    HM357226   6.836   7.851   8.129 -1.4268 -1.4568  0.7409
18670THY    CA657227   6.751   7.695   7.915  0.2414  0.2329 -0.6513
18670THY    HA657228   6.682   7.773   7.947 -1.5357 -0.0490 -2.0193
18671THY      O57229   5.317   3.863   7.125 -0.2521  0.1406  0.1026
18671THY     HO57230   5.310   3.820   7.212 -1.3591 -0.8705 -1.9325
18671THY    CA157231   5.443   3.887   7.094 -0.3328 -0.1374  0.0239
18671THY    CA257232   5.488   3.926   6.966  0.1289 -0.2374  0.7877
18671THY    CP157233   5.383   3.948   6.850 -0.2119 -0.1970  0.1861
18671THY    HP157234   5.294   3.885   6.858 -0.9954  1.4173  1.4306
18671THY    CP257235   5.434   3.909   6.706  0.0022  1.4692 -0.0374
18671THY    HP257236   5.471   3.806   6.707  2.4974  0.1571  0.7737
18671THY    HP357237   5.504   3.985   6.669  0.2005  1.7554 -0.0811
18671THY    HP457238   5.354   3.913   6.631  1.9658 -0.7551 -0.4287
18671THY    CP357239   5.331   4.092   6.843  0.5290  0.0383  0.2800
18671THY    HP557240   5.400   4.170   6.806 -0.1928 -1.1101  0.4045
18671THY    HP657241   5.302   4.131   6.941 -1.3527 -0.6885  0.8210
18671THY    HP757242   5.234   4.079   6.793  0.1348  1.0951 -0.9943
18671THY    CA357243   5.625   3.933   6.937 -0.4675  0.7534  0.3376
18671THY    HA357244   5.668   3.953   6.839  1.3586  1.0261 -1.8551
18671THY    CA457245   5.715   3.920   7.039 -0.2555  0.3652 -0.0854
18671THY    HA457246   5.822   3.922   7.019 -0.6521 -2.0243  0.4093
18671THY    CA557247   5.672   3.901   7.172 -0.4700  0.2583 -0.5760
18671THY    CM157248   5.786   3.889   7.273 -0.1275 -0.0515  0.4329
18671THY    HM157249   5.884   3.900   7.225 -0.0071  0.3055  1.0042
18671THY    HM257250   5.788   3.794   7.327  0.2697 -0.5590  0.1529
18671THY    HM357251   5.784   3.964   7.354  1.1812  1.4327 -1.0358
18671THY    CA657252   5.535   3.889   7.199 -0.0678  0.0774  0.4638
18671THY    HA657253   5.504   3.867   7.301  1.1403  0.7886  1.9485
18672THY      O57254   7.373   5.472   6.913 -0.0311 -0.1691 -0.0350
18672THY     HO57255   7.333   5.383   6.905 -1.3587  1.2983  0.3856
18672THY    CA157256   7.408   5.520   6.792 -0.2531  0.0489 -0.4290
18672THY    CA257257   7.479   5.645   6.782 -0.8317  0.5928 -0.2481
18672THY    CP157258   7.525   5.718   6.909  0.6590 -0.1861  0.3244
18672THY    HP157259   7.592   5.655   6.967 -0.6374 -0.4825 -1.4053
18672THY    CP257260   7.406   5.768   6.991 -0.1222 -0.4365  0.2165
18672THY    HP257261   7.433   5.769   7.097  1.8508 -0.9027 -0.4051
18672THY    HP357262   7.326   5.694   6.979  0.2213  0.6773 -0.3509
18672THY    HP457263   7.371   5.870   6.971  0.1537  0.9159  0.6021
18672THY    CP357264   7.609   5.841   6.886 -0.7066 -0.4912 -0.0792
18672THY    HP557265   7.557   5.927   6.842 -0.2620  1.4054  1.2347
18672THY    HP657266   7.700   5.822   6.828  0.6369  0.7532  2.1181
18672THY    HP757267   7.649   5.875   6.982  0.7467 -1.1391  0.1259
18672THY    CA357268   7.506   5.699   6.655 -0.1594 -0.2393 -0.0143
18672THY    HA357269   7.551   5.796   6.640  0.5132  2.4218  0.1716
18672THY    CA457270   7.472   5.620   6.546 -0.3126  0.4238  0.4112
18672THY    HA457271   7.509   5.657   6.451 -0.6184  0.3053  0.4177
18672THY    CA557272   7.417   5.493   6.555 -0.0840  0.6148 -0.2878
18672THY    CM157273   7.388   5.408   6.436 -0.2903  0.2887  0.5962
18672THY    HM157274   7.297   5.427   6.378  0.6023 -2.0498 -1.5958
18672THY    HM257275   7.386   5.305   6.472  1.0615  1.5535  0.9861
18672THY    HM357276   7.473   5.412   6.366  1.4000  2.1613 -0.4896
18672THY    CA657277   7.387   5.439   6.678  0.3913 -0.2167  0.8347
18672THY    HA657278   7.335   5.345   6.689  1.8940  0.5970  0.0567
18673THY      O57279   5.577   7.963   1.690 -0.1639 -0.5583 -1.1197
18673THY     HO57280   5.658   7.911   1.706 -0.3127  1.2663 -0.8647
18673THY    CA157281   5.523   7.974   1.816  0.0866 -0.2479  0.0972
18673THY    CA257282   5.392   8.036   1.827 -0.3741 -0.5197  0.9667
18673THY    CP157283   5.321   8.096   1.709  0.1692  0.0235  0.3279
18673THY    HP157284   5.363   8.060   1.615 -0.6184  0.1998 -1.1287
18673THY    CP257285   5.330   8.244   1.714 -0.0356  0.5037 -0.0047
18673THY    HP257286   5.430   8.287   1.705 -0.5804 -0.2106  1.1799
18673THY    HP357287   5.288   8.277   1.809  2.3966  1.4099  0.6749
18673THY    HP457288   5.278   8.290   1.629 -0.6912  1.3022  0.7626
18673THY    CP357289   5.177   8.047   1.695  0.7119  0.4576 -0.1826
18673THY    HP557290   5.168   7.941   1.668 -1.9075 -2.8829  0.7133
18673THY    HP657291   5.128   8.108   1.618 -0.8884  0.8761 -0.8789
18673THY    HP757292   5.119   8.066   1.787 -0.6098 -0.5232  0.7031
18673THY    CA357293   5.338   8.045   1.957 -0.1814 -0.0349 -0.5349
18673THY    HA357294   5.255   8.112   1.981  2.8960  2.8375  2.6843
18673THY    CA457295   5.415   7.998   2.071  0.0510  0.0141 -0.0551
18673THY    HA457296   5.372   8.003   2.170  1.0253  0.6426 -2.6589
18673THY    CA557297   5.537   7.925   2.056  0.6600 -0.0718 -0.3168
18673THY    CM157298   5.612   7.872   2.182 -0.2448 -0.2354 -0.6894
18673THY    HM157299   5.573   7.915   2.275 -1.1045 -1.4672  1.3494
18673THY    HM257300   5.722   7.879   2.178  0.1187  0.5845 -4.2762
18673THY    HM357301   5.596   7.765   2.194 -0.2978  0.0394 -0.6510
18673THY    CA657302   5.592   7.917   1.928 -0.2579 -0.3132 -0.3491
18673THY    HA657303   5.695   7.886   1.923  0.4514 -0.3622  1.8534
18674THY      O57304   3.255   4.597   5.374  0.1304  0.0654  0.4302
18674THY     HO57305   3.205   4.639   5.302 -0.0567 -1.4321 -2.1375
18674THY    CA157306   3.384   4.598   5.353  0.7301 -0.1840  0.6582
18674THY    CA257307   3.481   4.536   5.440 -0.5876  0.0217 -0.3338
18674THY    CP157308   3.442   4.465   5.571 -0.2044  0.0576 -0.6158
18674THY    HP157309   3.343   4.497   5.606  0.2055  0.8428 -0.1876
18674THY    CP257310   3.552   4.498   5.679  0.1346  0.1060 -0.3487
18674THY    HP257311   3.565   4.607   5.679 -1.1583  0.9292 -0.1685
18674THY    HP357312   3.653   4.461   5.659  0.6612  0.9945  0.5568
18674THY    HP457313   3.531   4.451   5.776  0.9601  0.4328 -0.0682
18674THY    CP357314   3.432   4.315   5.559  0.6600 -0.4165  0.2804
18674THY    HP557315   3.407   4.270   5.656 -3.0294 -0.7042  1.3693
18674THY    HP657316   3.522   4.276   5.509 -0.2758 -5.0300  3.3335
18674THY    HP757317   3.355   4.287   5.486 -1.2159  1.4803  0.2319
18674THY    CA357318   3.616   4.538   5.399 -0.4699 -0.2999 -0.2861
18674THY    HA357319   3.698   4.493   5.454 -1.2420 -0.5483 -2.1139
18674THY    CA457320   3.644   4.604   5.277 -0.7094 -0.1070 -0.6282
18674THY    HA457321   3.744   4.628   5.245 -0.8759 -1.0421 -1.1580
18674THY    CA557322   3.552   4.672   5.210  0.4736  0.3403 -0.2775
18674THY    CM157323   3.598   4.741   5.086  0.0675  0.0336  0.3571
18674THY    HM157324   3.538   4.826   5.052  2.5236 -1.8479  1.4874
18674THY    HM257325   3.605   4.675   4.999  0.7674  1.1415 -1.0941
18674THY    HM357326   3.699   4.780   5.099  0.0716 -1.7170  1.0217
18674THY    CA657327   3.419   4.666   5.240  0.0398  0.5416  0.1256
18674THY    HA657328   3.345   4.713   5.176 -0.5617  0.5451 -0.8063
18675THY      O57329   4.774   3.251   2.821 -0.5411  0.2398  0.3857
18675THY     HO57330   4.802   3.265   2.913 -0.8310  0.7853 -2.0751
18675THY    CA157331   4.861   3.311   2.741  0.3977  0.1618 -0.5115
18675THY    CA257332   4.851   3.309   2.601 -0.4391  0.1569  0.3932
18675THY    CP157333   4.763   3.217   2.520 -0.4499 -0.1376 -0.3735
18675THY    HP157334   4.688   3.170   2.584 -1.3442 -0.8780  0.0292
18675THY    CP257335   4.844   3.105   2.450 -0.0528 -0.1280 -0.4209
18675THY    HP257336   4.926   3.153   2.396  0.3954 -0.4662 -1.5355
18675THY    HP357337   4.777   3.055   2.380  0.2506 -1.5032  1.0324
18675THY    HP457338   4.882   3.042   2.531  1.3492 -0.1980  0.2929
18675THY    CP357339   4.668   3.284   2.427 -1.2051  0.5872 -0.2020
18675THY    HP557340   4.631   3.376   2.475  1.4272 -1.6391  2.2502
18675THY    HP657341   4.594   3.212   2.391  1.6115 -1.0518 -2.5145
18675THY    HP757342   4.733   3.315   2.344  0.2183  1.9031  0.4570
18675THY    CA357343   4.935   3.395   2.526 -0.2735  0.1879 -0.0770
18675THY    HA357344   4.927   3.396   2.418 -2.7610  0.3087 -0.5962
18675THY    CA457345   5.029   3.474   2.591  0.3680 -0.3040  0.4048
18675THY    HA457346   5.098   3.531   2.530 -0.0308 -0.5105  0.6650
18675THY    CA557347   5.041   3.471   2.725 -0.0083  0.1576  0.5542
18675THY    CM157348   5.145   3.553   2.794  0.2751 -0.4795 -0.5905
18675THY    HM157349   5.100   3.621   2.867  1.6827  1.3903 -1.5386
18675THY    HM257350   5.194   3.630   2.734  2.2132  0.6920 -0.8476
18675THY    HM357351   5.231   3.497   2.834  1.9194  0.9643  2.6609
18675THY    CA657352   4.961   3.391   2.803  0.3063  0.7826  0.3718
18675THY    HA657353   4.968   3.394   2.912 -2.3186  0.9926  2.2374
18676THY      O57354   4.691   6.486   5.704  0.1236  0.0444 -0.0214
18676THY     HO57355   4.770   6.539   5.725  1.9652  0.8131 -2.8542
18676THY    CA157356   4.641   6.554   5.596 -0.2489  0.2078  0.0074
18676THY    CA257357   4.533   6.510   5.523  0.3130  0.1931  0.5528
18676THY    CP157358   4.461   6.385   5.568  0.5210  0.4225  0.1532
18676THY    HP157359   4.492   6.371   5.673  2.7309  0.0844  1.8573
18676THY    CP257360   4.500   6.269   5.474  0.2635  0.6774  0.2068
18676THY    HP257361   4.462   6.171   5.505  0.0157 -1.6718 -0.5076
18676THY    HP357362   4.610   6.269   5.465  0.2806  0.7869 -1.0299
18676THY    HP457363   4.463   6.288   5.373  1.0433  0.7318  2.2804
18676THY    CP357364   4.304   6.400   5.566  0.3515  0.0101 -0.5701
18676THY    HP557365   4.255   6.304   5.583 -0.8903  0.1268  0.0688
18676THY    HP657366   4.272   6.427   5.464  4.1069 -1.1226  0.2306
18676THY    HP757367   4.258   6.474   5.633 -0.5047 -0.1857 -0.9078
18676THY    CA357368   4.493   6.578   5.406 -0.5817 -0.7353  0.1679
18676THY    HA357369   4.413   6.541   5.343 -1.2222  0.1621 -0.0091
18676THY    CA457370   4.552   6.693   5.372 -0.6744 -0.4194 -0.5442
18676THY    HA457371   4.518   6.747   5.285  3.0943 -0.4630  2.1509
18676THY    CA557372   4.648   6.751   5.457 -0.0514 -1.1274 -0.2180
18676THY    CM157373   4.713   6.879   5.427 -0.0267  0.3020  0.5883
18676THY    HM157374   4.805   6.858   5.372 -1.7028 -2.0026 -1.2853
18676THY    HM257375   4.724   6.950   5.510  1.0534  0.5629  0.1417
18676THY    HM357376   4.654   6.929   5.349 -1.9270  1.1462 -0.2144
18676THY    CA657377   4.700   6.680   5.561  0.2976 -0.0956 -0.0500
18676THY    HA657378   4.781   6.720   5.620  0.8355 -0.4316 -0.6253
18677THY      O57379   7.442   2.497   6.063  0.4762 -0.1540 -0.3753
18677THY     HO57380   7.512   2.435   6.089 -0.6674  2.0421 -0.8631
18677THY    CA157381   7.372   2.515   6.176 -0.4767 -0.3961 -0.4813
18677THY    CA257382   7.246   2.572   6.180 -0.2056  0.9589  0.0470
18677THY    CP157383   7.182   2.629   6.055 -0.2034 -0.4633 -0.1142
18677THY    HP157384   7.235   2.574   5.975 -1.5407 -0.8003 -0.9446
18677THY    CP257385   7.210   2.773   6.034 -0.5508 -0.0613 -0.9994
18677THY    HP257386   7.317   2.797   6.022 -1.2431 -3.1184  1.0487
18677THY    HP357387   7.167   2.838   6.111  0.3845  0.8827 -1.4574
18677THY    HP457388   7.158   2.793   5.940  1.8840 -1.7704 -2.1147
18677THY    CP357389   7.026   2.593   6.053 -0.4018  0.0910 -0.5936
18677THY    HP557390   7.001   2.492   6.087  0.5361 -0.7628 -1.1254
18677THY    HP657391   7.004   2.593   5.945  2.0620 -0.4877 -2.3676
18677THY    HP757392   6.969   2.673   6.102  0.6775  1.7888 -0.8195
18677THY    CA357393   7.178   2.581   6.303  0.1174  0.1286  0.3705
18677THY    HA357394   7.077   2.620   6.312  0.8042 -1.4814  2.7850
18677THY    CA457395   7.247   2.539   6.423 -0.2091 -0.0107  0.2937
18677THY    HA457396   7.196   2.538   6.519 -1.1431 -0.3374  3.5732
18677THY    CA557397   7.380   2.492   6.416  0.3885  0.2822 -0.2628
18677THY    CM157398   7.450   2.436   6.539  0.2944  0.4325  1.2596
18677THY    HM157399   7.414   2.494   6.625 -0.5023  1.9686 -1.3716
18677THY    HM257400   7.559   2.438   6.531  0.4172  1.4427 -0.3713
18677THY    HM357401   7.417   2.333   6.555  2.5199 -4.0134 -0.4224
18677THY    CA657402   7.440   2.480   6.292  1.2981 -0.4874 -0.3967
18677THY    HA657403   7.539   2.435   6.295  1.0817  1.8748 -0.8541
18678THY      O57404   4.820   7.212   3.082  0.5547 -0.1497 -0.0769
18678THY     HO57405   4.789   7.150   3.150  0.5352 -0.7808 -0.7638
18678THY    CA157406   4.774   7.163   2.962 -0.1403  0.3228  0.3685
18678THY    CA257407   4.834   7.198   2.840  1.2713  0.4445  0.1337
18678THY    CP157408   4.935   7.311   2.824 -0.4761 -0.1147  0.5122
18678THY    HP157409   4.921   7.378   2.909  1.7507  1.1181 -0.5094
18678THY    CP257410   4.896   7.396   2.709  0.2018  0.7240 -0.1790
18678THY    HP257411   4.895   7.352   2.609  0.5479 -0.6335  2.6857
18678THY    HP357412   4.966   7.480   2.699  0.9146  0.9123 -0.7408
18678THY    HP457413   4.795   7.433   2.729  0.0476  1.7785 -1.1150
18678THY    CP357414   5.082   7.257   2.807  0.5496  0.7104 -0.0783
18678THY    HP557415   5.145   7.345   2.824 -0.0589 -0.0797  0.5321
18678THY    HP657416   5.102   7.214   2.708  0.0176 -1.1067  3.5008
18678THY    HP757417   5.097   7.177   2.881 -0.9014  0.2499 -0.8183
18678THY    CA357418   4.793   7.129   2.722 -0.3245 -0.7234 -0.4139
18678THY    HA357419   4.832   7.154   2.623 -0.7523 -0.8879 -0.3971
18678THY    CA457420   4.684   7.041   2.734 -0.2989 -0.4347  1.1659
18678THY    HA457421   4.653   6.993   2.642 -1.5806  0.1801  0.7855
18678THY    CA557422   4.626   7.003   2.854  0.4372  1.1301 -0.1375
18678THY    CM157423   4.501   6.917   2.856 -0.0063 -0.1578 -0.3505
18678THY    HM157424   4.421   6.961   2.915 -2.6438 -2.0118 -2.3470
18678THY    HM257425   4.522   6.817   2.897  1.7810  0.5782  0.2865
18678THY    HM357426   4.462   6.918   2.753  0.0750 -0.2278 -1.9229
18678THY    CA657427   4.665   7.076   2.969 -0.1567  0.0372  0.0165
18678THY    HA657428   4.620   7.058   3.066  0.6772  0.1476 -1.6509
18679THY      O57429   5.877   8.672   5.122 -0.0432  0.0185 -0.7475
18679THY     HO57430   5.786   8.701   5.104 -0.0789 -0.2750 -1.0305
18679THY    CA157431   5.855   8.562   5.198 -0.6263  0.5130 -0.2747
18679THY    CA257432   5.962   8.504   5.267  0.8206  0.2386  0.3552
18679THY    CP157433   6.105   8.560   5.245  0.6171 -0.9100  0.3809
18679THY    HP157434   6.104   8.666   5.218 -0.7608  2.1976  1.2632
18679THY    CP257435   6.196   8.467   5.153  0.0490 -1.4412 -0.4313
18679THY    HP257436   6.144   8.454   5.058 -0.5577 -1.0114 -1.2878
18679THY    HP357437   6.196   8.364   5.192  2.9045 -2.8856 -1.0835
18679THY    HP457438   6.294   8.509   5.127 -0.3970 -2.5351 -0.0304
18679THY    CP357439   6.157   8.583   5.389  0.2628  0.3891 -0.8874
18679THY    HP557440   6.097   8.662   5.434 -1.0373  0.7100 -2.0241
18679THY    HP657441   6.257   8.629   5.387  0.1694 -0.7911 -0.7051
18679THY    HP757442   6.151   8.499   5.460 -0.1505  0.0069 -1.1844
18679THY    CA357443   5.930   8.397   5.353  0.3456  0.6167 -0.1281
18679THY    HA357444   6.005   8.339   5.406  1.1091  0.3398  0.5964
18679THY    CA457445   5.795   8.352   5.356 -0.5189  0.1356  0.3434
18679THY    HA457446   5.773   8.266   5.419 -0.9563  0.3174  0.5851
18679THY    CA557447   5.696   8.408   5.275  0.3281  0.5847 -0.1140
18679THY    CM157448   5.559   8.349   5.256 -0.2248  0.3312  0.5687
18679THY    HM157449   5.569   8.245   5.222 -0.0826 -0.0340  0.7026
18679THY    HM257450   5.497   8.402   5.183  1.4674  1.1032  3.8534
18679THY    HM357451   5.484   8.359   5.335 -2.4141 -1.6252  0.2922
18679THY    CA657452   5.725   8.521   5.201 -0.0976 -0.1739 -0.6008
18679THY    HA657453   5.647   8.568   5.141 -2.6094  3.7833  0.8100
18680THY      O57454   9.157   3.851   4.587  0.1843 -0.1172 -0.2116
18680THY     HO57455   9.167   3.790   4.512  3.7327  0.4287 -0.5680
18680THY    CA157456   9.026   3.863   4.613 -0.7218  0.0058 -0.1623
18680THY    CA257457   8.976   3.916   4.735 -0.3798  0.2653 -0.6357
18680THY    CP157458   9.072   3.965   4.841  0.3566 -0.1645 -0.0748
18680THY    HP157459   9.177   3.974   4.812  0.3846  0.5011  2.7047
18680THY    CP257460   9.071   3.857   4.953 -0.5619  0.3058 -0.3320
18680THY    HP257461   9.152   3.884   5.022 -0.1009 -0.5919  0.6421
18680THY    HP357462   9.085   3.759   4.906 -1.3377 -1.2471  0.2729
18680THY    HP457463   8.986   3.842   5.022  1.9271  3.9753  0.9717
18680THY    CP357464   9.039   4.097   4.913  0.0650  0.7592 -0.0182
18680THY    HP557465   9.115   4.117   4.989  0.1058 -0.0494  3.6523
18680THY    HP657466   8.941   4.106   4.961  0.5207  1.4980  1.3123
18680THY    HP757467   9.038   4.183   4.846  0.0977  1.6536  0.6872
18680THY    CA357468   8.841   3.921   4.748 -0.5675  0.2065 -0.3636
18680THY    HA357469   8.805   3.953   4.846  1.9358  1.0552  0.0403
18680THY    CA457470   8.753   3.902   4.642  0.0675 -0.3894 -0.2309
18680THY    HA457471   8.649   3.929   4.658 -0.0814 -0.6195 -0.6528
18680THY    CA557472   8.804   3.851   4.524  0.4900 -0.0561  0.5790
18680THY    CM157473   8.714   3.832   4.405 -0.3628  0.0622 -0.1814
18680THY    HM157474   8.611   3.819   4.437 -0.5997  0.5706  2.4341
18680THY    HM257475   8.754   3.768   4.325 -2.3244 -0.6251 -0.5961
18680THY    HM357476   8.714   3.927   4.351  0.0719 -0.0348 -0.2320
18680THY    CA657477   8.940   3.824   4.515 -0.3469  0.3268 -0.1705
18680THY    HA657478   8.986   3.794   4.421  0.5196  1.2492 -1.8861
18681THY      O57479   7.160   1.340   4.195  0.3850  0.5580  0.0083
18681THY     HO57480   7.064   1.357   4.190  0.7067 -2.1152  1.6749
18681THY    CA157481   7.217   1.466   4.215  0.3137  0.3565 -0.7917
18681THY    CA257482   7.357   1.483   4.234 -0.4457  0.0912 -0.4969
18681THY    CP157483   7.454   1.360   4.247 -0.3004 -0.0007  0.0925
18681THY    HP157484   7.410   1.287   4.179 -2.7358  1.2971  0.2270
18681THY    CP257485   7.439   1.298   4.390  0.1528 -0.1911 -0.3574
18681THY    HP257486   7.498   1.207   4.408  0.1631  1.7278 -0.0207
18681THY    HP357487   7.336   1.274   4.419  0.5155  0.4856 -1.1453
18681THY    HP457488   7.474   1.379   4.455 -0.0651 -1.5686  0.8782
18681THY    CP357489   7.602   1.386   4.216 -0.8116 -0.2887 -0.2132
18681THY    HP557490   7.662   1.444   4.288  0.7408 -0.9371 -0.9777
18681THY    HP657491   7.600   1.437   4.119  0.1089  1.7867  4.2853
18681THY    HP757492   7.652   1.290   4.204  1.2624  2.9264  0.3186
18681THY    CA357493   7.407   1.621   4.243 -0.0912 -0.6542 -0.1666
18681THY    HA357494   7.512   1.647   4.244 -0.0587  1.1054 -0.2305
18681THY    CA457495   7.315   1.725   4.249 -0.8239  0.6768 -0.7443
18681THY    HA457496   7.341   1.830   4.256  0.8008 -0.6667 -1.0123
18681THY    CA557497   7.177   1.700   4.231 -0.0500  0.4586 -0.2853
18681THY    CM157498   7.075   1.804   4.252  0.5292 -0.4807  0.5896
18681THY    HM157499   6.988   1.759   4.301  0.6438 -3.2176 -3.1644
18681THY    HM257500   7.059   1.860   4.159  1.8062 -1.1360 -0.0869
18681THY    HM357501   7.128   1.883   4.307  1.8308  1.2185 -1.3435
18681THY    CA657502   7.132   1.573   4.214  0.3479  0.7508 -0.5239
18681THY    HA657503   7.030   1.546   4.191  0.4682  1.0953 -1.2964
18682THY      O57504   3.204   5.467   3.837  0.2470 -0.2098  0.3281
18682THY     HO57505   3.161   5.466   3.750  0.2615 -0.2119 -0.3749
18682THY    CA157506   3.336   5.476   3.819  0.5077 -0.2878 -0.4725
18682THY    CA257507   3.425   5.477   3.926 -0.5763 -0.1957  0.5516
18682THY    CP157508   3.380   5.482   4.077  0.1210 -0.4133 -1.1848
18682THY    HP157509   3.273   5.460   4.085 -1.0561  0.5895  3.5546
18682THY    CP257510   3.412   5.615   4.150  0.2292  0.1058  0.3420
18682THY    HP257511   3.519   5.636   4.162  0.0598  1.2470  0.6229
18682THY    HP357512   3.376   5.604   4.253  0.0681  0.0256  0.0986
18682THY    HP457513   3.365   5.697   4.095 -0.0664 -1.7294 -0.9820
18682THY    CP357514   3.441   5.360   4.148 -0.0648  0.0171 -0.1507
18682THY    HP557515   3.388   5.337   4.242  0.4273 -0.2279 -2.5108
18682THY    HP657516   3.549   5.359   4.166 -0.3151  1.7109 -1.4480
18682THY    HP757517   3.417   5.272   4.088 -3.3758  1.4736 -0.4064
18682THY    CA357518   3.564   5.472   3.896 -0.1287 -0.0224  0.0202
18682THY    HA357519   3.637   5.491   3.973 -2.5311  2.2157  0.8357
18682THY    CA457520   3.602   5.469   3.763  0.5992 -0.8024 -0.1940
18682THY    HA457521   3.707   5.476   3.733  0.4924 -1.2666 -0.5349
18682THY    CA557522   3.512   5.497   3.664  0.0401  0.5488  0.7514
18682THY    CM157523   3.551   5.528   3.524  0.0683  0.1227  0.3075
18682THY    HM157524   3.466   5.574   3.472 -0.3302  1.0025  0.6026
18682THY    HM257525   3.571   5.435   3.471 -3.3392 -0.6797 -0.1022
18682THY    HM357526   3.635   5.598   3.525  0.0576 -0.8580  0.3395
18682THY    CA657527   3.380   5.491   3.691 -0.2312 -0.1620  0.7648
18682THY    HA657528   3.312   5.503   3.607 -0.0780 -0.2744  0.8474
18683THY      O57529   3.347   5.330   4.649  0.6723  0.0052  0.0240
18683THY     HO57530   3.250   5.331   4.646  0.5535  1.0390 -2.4607
18683THY    CA157531   3.379   5.204   4.661 -0.0682  0.6016  0.0946
18683THY    CA257532   3.442   5.154   4.771 -1.0827 -0.0300  0.1111
18683THY    CP157533   3.518   5.235   4.875 -0.2756  0.3562  0.5601
18683THY    HP157534   3.472   5.334   4.877  0.0625 -1.2670  0.7780
18683THY    CP257535   3.672   5.236   4.859 -0.8697  0.5515 -0.6725
18683THY    HP257536   3.729   5.258   4.951 -0.5069  0.8010 -2.5272
18683THY    HP357537   3.693   5.319   4.791 -0.3914  1.4100 -0.0698
18683THY    HP457538   3.701   5.137   4.824 -1.0790 -0.2503 -0.4541
18683THY    CP357539   3.490   5.199   5.021  0.1242 -0.2306 -0.1365
18683THY    HP557540   3.548   5.114   5.060  0.8315  0.9759  0.8638
18683THY    HP657541   3.385   5.189   5.049  1.1347  4.6487  0.0680
18683THY    HP757542   3.509   5.286   5.086 -2.9011  0.5579  0.0385
18683THY    CA357543   3.452   5.010   4.779  0.1380 -0.1023  0.5832
18683THY    HA357544   3.495   4.957   4.863 -1.0451 -0.2254 -0.6346
18683THY    CA457545   3.395   4.927   4.684  0.0420 -0.6566  0.5896
18683THY    HA457546   3.401   4.819   4.694  2.2429  1.7029  0.8410
18683THY    CA557547   3.333   4.976   4.570 -0.0385 -0.2504 -0.4258
18683THY    CM157548   3.272   4.888   4.467  0.6306 -0.3345 -0.0051
18683THY    HM157549   3.287   4.936   4.370  0.4791 -1.5156 -2.2191
18683THY    HM257550   3.163   4.884   4.480  0.6723  0.0481  0.0420
18683THY    HM357551   3.315   4.787   4.474  1.2493  1.4345  0.3242
18683THY    CA657552   3.322   5.116   4.565 -0.0089  0.6649  0.1405
18683THY    HA657553   3.271   5.164   4.482  3.2482 -0.1903  2.4187
18684THY      O57554   8.767   6.752   7.590 -0.0167 -0.4670 -0.0718
18684THY     HO57555   8.707   6.682   7.619  1.6447  1.5027 -0.7947
18684THY    CA157556   8.817   6.813   7.699 -0.2178  0.0868 -0.1210
18684THY    CA257557   8.954   6.817   7.721 -0.0264 -0.5255  0.3133
18684THY    CP157558   9.055   6.746   7.628 -0.1443  0.2905  0.3454
18684THY    HP157559   9.007   6.736   7.530  0.7120 -0.1278  0.2181
18684THY    CP257560   9.078   6.612   7.689 -0.2555  0.5759  0.9534
18684THY    HP257561   9.132   6.543   7.624 -1.5779 -0.6012  0.9703
18684THY    HP357562   8.975   6.576   7.705 -1.0691 -1.0383  2.4223
18684THY    HP457563   9.130   6.617   7.785  1.8029 -0.4883  0.9385
18684THY    CP357564   9.182   6.816   7.604 -0.0629  0.7179 -0.6256
18684THY    HP557565   9.254   6.827   7.686  1.2460 -0.4614  0.0455
18684THY    HP657566   9.175   6.907   7.543  1.9354 -0.3863 -1.1447
18684THY    HP757567   9.239   6.749   7.538  3.5564  1.9263  0.9991
18684THY    CA357568   9.008   6.862   7.848  0.2569 -0.0501  0.2204
18684THY    HA357569   9.115   6.862   7.869  0.2253  0.2028 -1.0047
18684THY    CA457570   8.916   6.895   7.947 -0.9355  0.4037 -0.0704
18684THY    HA457571   8.965   6.908   8.043  3.1646 -1.5699  0.7670
18684THY    CA557572   8.780   6.882   7.931  0.1946 -0.1320 -0.4254
18684THY    CM157573   8.685   6.928   8.043  0.6570 -0.2248  0.6954
18684THY    HM157574   8.604   6.992   8.008  2.5622 -0.5050  3.1162
18684THY    HM257575   8.730   6.991   8.120  0.5782  0.6087 -0.2448
18684THY    HM357576   8.649   6.839   8.096  2.3437  0.6246  0.4710
18684THY    CA657577   8.731   6.843   7.801 -0.3364  0.2883 -0.3503
18684THY    HA657578   8.625   6.817   7.798 -0.7516  0.3891  1.1950
18685THY      O57579   3.492   7.941   5.077  0.1066  0.3993  0.6728
18685THY     HO57580   3.432   7.952   5.153  1.1478  1.2867  0.2990
18685THY    CA157581   3.446   8.006   4.967 -0.1047  0.5311 -0.0442
18685THY    CA257582   3.522   8.001   4.850  0.3325  0.0036  0.3616
18685THY    CP157583   3.668   7.950   4.847 -0.1461 -0.2381 -0.6240
18685THY    HP157584   3.709   7.971   4.947 -2.5775  0.5761  0.7122
18685THY    CP257585   3.766   8.038   4.769 -0.1424  0.3723  0.3300
18685THY    HP257586   3.760   8.017   4.662  2.7243  0.2525 -0.3127
18685THY    HP357587   3.874   8.025   4.784  0.4480 -3.7337 -1.1490
18685THY    HP457588   3.741   8.141   4.799 -0.9479 -0.4678  0.3845
18685THY    CP357589   3.688   7.805   4.819  0.3701 -0.1012  0.2265
18685THY    HP557590   3.618   7.744   4.878  0.7589 -1.0203 -1.1781
18685THY    HP657591   3.792   7.774   4.835 -0.1410  1.5519 -0.7956
18685THY    HP757592   3.650   7.783   4.718 -1.1451  0.6149 -0.6036
18685THY    CA357593   3.462   8.049   4.736 -0.3946  0.1909  0.3280
18685THY    HA357594   3.518   8.038   4.643  0.8685  1.1777 -2.5693
18685THY    CA457595   3.328   8.095   4.742 -0.4894  0.4849 -0.4107
18685THY    HA457596   3.282   8.134   4.651 -0.0059  0.9003  1.1802
18685THY    CA557597   3.260   8.112   4.867  0.7824  0.3529 -0.3330
18685THY    CM157598   3.128   8.178   4.871  0.0112 -0.2040 -0.7127
18685THY    HM157599   3.107   8.245   4.787 -2.4316 -0.9400 -2.2770
18685THY    HM257600   3.121   8.243   4.960 -1.5602 -0.1322 -0.9624
18685THY    HM357601   3.050   8.101   4.875  0.5754 -0.4614 -1.3053
18685THY    CA657602   3.320   8.065   4.980 -0.0694  0.1615  0.0640
18685THY    HA657603   3.260   8.050   5.069  0.7084  0.2505 -3.1348
18686THY      O57604   6.405   5.468   6.939 -0.2386  0.4574 -0.1097
18686THY     HO57605   6.358   5.484   6.855 -2.1170  1.4792  0.0834
18686THY    CA157606   6.424   5.347   6.952 -0.1774  0.1547  0.5029
18686THY    CA257607   6.461   5.296   7.074 -0.1080 -0.6643  0.0524
18686THY    CP157608   6.494   5.385   7.193  0.1857 -0.6555 -0.5500
18686THY    HP157609   6.465   5.489   7.177 -2.2667  1.3353 -0.8314
18686THY    CP257610   6.645   5.384   7.219  0.1474  0.5317 -0.3003
18686THY    HP257611   6.671   5.371   7.325 -1.1458  0.7293 -1.6126
18686THY    HP357612   6.683   5.481   7.185  0.6299  3.3112  0.5711
18686THY    HP457613   6.697   5.302   7.167 -1.0085 -1.3618  0.1006
18686THY    CP357614   6.419   5.348   7.322  0.0174 -0.1578  0.9302
18686THY    HP557615   6.425   5.250   7.369 -0.9773  0.5097  1.1748
18686THY    HP657616   6.315   5.344   7.290 -0.3405  1.0906 -1.7859
18686THY    HP757617   6.433   5.425   7.399  0.2894  1.7535 -0.9583
18686THY    CA357618   6.484   5.159   7.094 -0.1773 -0.1205 -0.1070
18686THY    HA357619   6.513   5.122   7.192  0.5327 -0.8620 -1.5824
18686THY    CA457620   6.452   5.069   6.992 -0.0741  0.1019 -0.4726
18686THY    HA457621   6.468   4.963   7.011  2.7572  0.1576 -0.1112
18686THY    CA557622   6.409   5.119   6.866  0.4632  0.2370 -0.6149
18686THY    CM157623   6.381   5.029   6.748  0.1649 -0.0063  0.1627
18686THY    HM157624   6.275   5.001   6.744  0.5380 -0.3168 -1.2896
18686THY    HM257625   6.447   4.943   6.764 -1.0201  1.8014 -0.4788
18686THY    HM357626   6.410   5.069   6.650 -1.3117  0.0211  1.3567
18686THY    CA657627   6.390   5.254   6.850 -0.5807  0.2855 -0.4046
18686THY    HA657628   6.345   5.292   6.759 -0.6332 -0.0440 -1.2301
18687THY      O57629   5.697   5.352   2.865 -0.5009  0.2712  0.7774
18687THY     HO57630   5.633   5.406   2.915 -0.7756  2.0763 -1.0840
18687THY    CA157631   5.816   5.402   2.904  0.0854  0.6854  0.5427
18687THY    CA257632   5.928   5.314   2.909 -0.3426  0.2398  0.0644
18687THY    CP157633   5.906   5.170   2.859  0.5031 -0.0558  0.4835
18687THY    HP157634   5.841   5.172   2.771 -0.4277  0.6105  0.1899
18687THY    CP257635   5.835   5.093   2.975 -0.6323  0.1798  0.3474
18687THY    HP257636   5.760   5.155   3.027 -0.0849 -1.1311  2.1967
18687THY    HP357637   5.901   5.079   3.061 -0.6517  0.1238 -0.1042
18687THY    HP457638   5.788   5.000   2.942 -1.0623  1.5230  0.0721
18687THY    CP357639   6.036   5.095   2.821 -0.0892 -0.2836  0.0548
18687THY    HP557640   6.009   4.991   2.799 -1.5698 -0.5406  0.4667
18687THY    HP657641   6.112   5.096   2.900 -0.0660 -0.3068  0.0886
18687THY    HP757642   6.071   5.136   2.726 -0.0221 -0.8760 -1.3232
18687THY    CA357643   6.057   5.368   2.928  0.4549 -0.3533  0.2351
18687THY    HA357644   6.146   5.307   2.924  1.3468 -0.8959  1.5228
18687THY    CA457645   6.073   5.503   2.948  0.3862  0.3103  0.0147
18687THY    HA457646   6.174   5.542   2.948  1.1242  0.5780 -1.7982
18687THY    CA557647   5.967   5.590   2.933 -0.3807  0.6817 -0.1128
18687THY    CM157648   5.987   5.739   2.953  0.0670 -0.5963  0.5169
18687THY    HM157649   6.026   5.793   2.866  3.6464  0.0374 -0.8063
18687THY    HM257650   6.060   5.754   3.034 -0.9350  0.4519 -0.0997
18687THY    HM357651   5.893   5.785   2.986  1.2511  0.6205  2.1977
18687THY    CA657652   5.840   5.543   2.916  0.2948 -0.2715  0.0816
18687THY    HA657653   5.753   5.609   2.918 -1.9449  1.6737 -2.6971
18688THY      O57654   1.796   1.701   3.387 -0.1286  0.3221 -0.9270
18688THY     HO57655   1.753   1.788   3.398  2.9175 -1.3441  0.9669
18688THY    CA157656   1.865   1.687   3.498  0.6922 -0.2715 -0.1875
18688THY    CA257657   1.984   1.616   3.511  0.1605  0.0385  0.2707
18688THY    CP157658   2.050   1.545   3.399  0.4675 -0.4636 -0.6779
18688THY    HP157659   1.993   1.551   3.305  2.6316 -1.7814  0.4443
18688THY    CP257660   2.085   1.405   3.436 -0.0580 -0.2890 -0.0464
18688THY    HP257661   2.003   1.344   3.476 -1.0126  0.7767  1.8486
18688THY    HP357662   2.168   1.418   3.507 -0.2962 -0.5149  3.8891
18688THY    HP457663   2.117   1.350   3.346  1.0425  0.6217 -0.9583
18688THY    CP357664   2.176   1.621   3.357 -0.1522  0.4741  0.2544
18688THY    HP557665   2.235   1.642   3.447 -1.9109  1.5483  0.7749
18688THY    HP657666   2.146   1.714   3.307  0.6478 -1.0458 -0.2683
18688THY    HP757667   2.245   1.566   3.292 -2.2380 -0.5324 -1.2635
18688THY    CA357668   2.052   1.614   3.644 -0.1027 -0.4223  0.1827
18688THY    HA357669   2.148   1.565   3.661  0.5673  1.1512  1.9195
18688THY    CA457670   1.982   1.667   3.752 -0.1542 -0.7167 -0.9113
18688THY    HA457671   2.016   1.660   3.855 -0.8960 -0.3534  0.4082
18688THY    CA557672   1.863   1.736   3.733 -0.3440 -0.4176 -0.6666
18688THY    CM157673   1.774   1.779   3.849 -0.1242  0.2495  0.2931
18688THY    HM157674   1.686   1.840   3.822 -0.0543 -2.9233 -0.8594
18688THY    HM257675   1.834   1.825   3.928  0.4634  1.2726 -2.1127
18688THY    HM357676   1.739   1.691   3.904 -0.5161  1.7455  1.3296
18688THY    CA657677   1.812   1.759   3.604  0.3817  0.3659 -0.0434
18688THY    HA657678   1.717   1.810   3.597  0.9104 -0.8212  0.8195
18689THY      O57679   3.645   8.702   6.164 -0.1052 -0.6771 -0.2245
18689THY     HO57680   3.668   8.797   6.162  0.6297 -0.6315 -0.3927
18689THY    CA157681   3.576   8.673   6.277 -0.4159  0.0132  0.5614
18689THY    CA257682   3.604   8.557   6.356  0.0876  0.2100  0.0191
18689THY    CP157683   3.712   8.458   6.298  0.0313 -0.1722 -0.0056
18689THY    HP157684   3.720   8.463   6.189  0.5661 -0.0985  1.0582
18689THY    CP257685   3.689   8.312   6.330  0.3614  0.2283 -0.0998
18689THY    HP257686   3.600   8.263   6.290 -0.9384  3.6765 -0.8489
18689THY    HP357687   3.694   8.293   6.438 -0.4809 -0.0565 -2.2902
18689THY    HP457688   3.771   8.247   6.298 -2.4128  0.7420 -4.2248
18689THY    CP357689   3.847   8.497   6.363 -0.1879  0.0810 -0.7153
18689THY    HP557690   3.928   8.480   6.291  1.2656  0.0840  4.4807
18689THY    HP657691   3.852   8.432   6.451 -1.8436 -0.0221 -1.0279
18689THY    HP757692   3.845   8.603   6.393  0.4066  0.9118 -0.9271
18689THY    CA357693   3.525   8.538   6.470 -0.9143  0.1034  0.1537
18689THY    HA357694   3.539   8.452   6.534 -0.2295 -0.9557 -0.5454
18689THY    CA457695   3.423   8.628   6.503 -0.1174  0.2699 -0.1844
18689THY    HA457696   3.373   8.620   6.599  0.9753  0.8145 -0.6405
18689THY    CA557697   3.408   8.745   6.426  0.1189 -0.9027 -0.2434
18689THY    CM157698   3.317   8.840   6.485 -0.1274 -0.4158 -0.2536
18689THY    HM157699   3.349   8.897   6.572 -1.4997  1.1972 -1.8053
18689THY    HM257700   3.236   8.780   6.529  2.3889  1.2574 -2.6659
18689THY    HM357701   3.280   8.904   6.404  1.0371 -1.8655 -1.3330
18689THY    CA657702   3.481   8.760   6.315 -0.0366  0.7065 -0.2709
18689THY    HA657703   3.475   8.852   6.259  1.0807 -0.8151 -1.0815
18690THY      O57704   0.975   4.759   7.245 -0.1234 -0.0939  0.3378
18690THY     HO57705   0.929   4.819   7.307  0.6603  1.1106 -0.2631
18690THY    CA157706   0.908   4.764   7.120  1.0952 -0.0545 -0.7904
18690THY    CA257707   0.960   4.698   7.009 -0.4238  0.1593  0.2380
18690THY    CP157708   1.099   4.638   7.013 -0.6528 -0.2069  0.8317
18690THY    HP157709   1.134   4.608   7.113  0.8623 -1.8139 -3.7510
18690THY    CP257710   1.199   4.743   6.953  0.8010 -0.4613  1.0395
18690THY    HP257711   1.298   4.698   6.955 -0.4400  1.7933 -1.9015
18690THY    HP357712   1.195   4.828   7.022  0.8241 -0.6415  1.1873
18690THY    HP457713   1.171   4.758   6.848 -1.1007 -0.5358 -2.0856
18690THY    CP357714   1.103   4.504   6.945 -0.3596  0.3632 -0.0066
18690THY    HP557715   1.107   4.518   6.836 -1.7281  0.0084 -1.9803
18690THY    HP657716   1.010   4.447   6.960  0.3466  3.0020 -0.6006
18690THY    HP757717   1.190   4.447   6.981 -1.2231  1.7463 -0.4871
18690THY    CA357718   0.885   4.701   6.888  1.0592  0.4561  0.7669
18690THY    HA357719   0.921   4.640   6.806 -1.0376  2.0826 -3.0664
18690THY    CA457720   0.760   4.766   6.887 -0.0599  0.3539 -0.0749
18690THY    HA457721   0.700   4.776   6.797 -0.0441  0.3134 -0.3332
18690THY    CA557722   0.708   4.826   7.011 -0.2040  0.5888 -0.2291
18690THY    CM157723   0.575   4.889   7.018  0.6601  0.3035  0.6422
18690THY    HM157724   0.545   4.928   6.919 -1.7455  0.4741 -0.5871
18690THY    HM257725   0.583   4.972   7.088  1.5498  2.6739 -1.3218
18690THY    HM357726   0.488   4.826   7.041  0.7484  1.0555  0.7874
18690THY    CA657727   0.786   4.828   7.121  0.1830  0.1480 -0.3348
18690THY    HA657728   0.754   4.876   7.213  0.9198  0.4281 -0.3694
18691THY      O57729   1.430   7.240   1.969 -0.5970 -0.6901  0.3453
18691THY     HO57730   1.351   7.202   2.011  0.6865  0.6767 -0.9204
18691THY    CA157731   1.491   7.333   2.041 -0.0595 -0.3072 -0.0363
18691THY    CA257732   1.627   7.327   2.070 -0.3919 -0.1161  0.8418
18691THY    CP157733   1.709   7.195   2.057 -0.5377  0.2113 -0.0897
18691THY    HP157734   1.663   7.142   1.973  0.0542 -0.0671 -0.1700
18691THY    CP257735   1.695   7.117   2.187 -0.1840 -0.3648 -0.3211
18691THY    HP257736   1.730   7.015   2.167  1.2704  1.5069 -0.2577
18691THY    HP357737   1.590   7.111   2.216 -0.2271 -0.1766  1.0066
18691THY    HP457738   1.763   7.167   2.257 -3.0214  0.9717  1.9344
18691THY    CP357739   1.856   7.210   2.026 -0.1917  0.3813 -0.0994
18691THY    HP557740   1.908   7.114   2.022 -0.7244 -0.3476 -0.3659
18691THY    HP657741   1.914   7.277   2.090 -0.4578  2.0699 -1.4125
18691THY    HP757742   1.865   7.261   1.930 -0.9177  0.0952 -0.4952
18691THY    CA357743   1.682   7.432   2.145 -0.5049  0.6797  0.0572
18691THY    HA357744   1.782   7.433   2.188 -0.0581 -0.3236  0.3070
18691THY    CA457745   1.611   7.548   2.160  0.9462 -0.1826 -0.6270
18691THY    HA457746   1.648   7.632   2.219  1.4685  1.0094 -1.6693
18691THY    CA557747   1.477   7.559   2.121  0.1738  0.5134  0.6363
18691THY    CM157748   1.404   7.692   2.151  0.1703  0.0968  0.0359
18691THY    HM157749   1.423   7.744   2.245  0.5525 -1.4792  2.9565
18691THY    HM257750   1.298   7.664   2.151  0.3587  1.2135 -0.7418
18691THY    HM357751   1.422   7.765   2.071 -1.8127 -1.7707 -1.3925
18691THY    CA657752   1.414   7.447   2.065 -0.1908 -0.2552 -0.0997
18691THY    HA657753   1.307   7.445   2.043 -0.2383 -0.4134  1.9860
18692THY      O57754   2.201   5.715   4.769 -0.5815 -0.1849  0.5396
18692THY     HO57755   2.137   5.747   4.835 -0.1333 -0.0743  1.2090
18692THY    CA157756   2.203   5.586   4.787  0.8938  0.2465  0.2632
18692THY    CA257757   2.124   5.500   4.704 -0.0002  0.0453 -0.4068
18692THY    CP157758   2.047   5.548   4.578 -0.6568 -0.5066 -0.6883
18692THY    HP157759   2.001   5.644   4.606 -0.4197 -0.3663 -0.6140
18692THY    CP257760   1.945   5.453   4.508 -0.2212 -0.7676  0.2753
18692THY    HP257761   1.885   5.517   4.442 -1.4978 -0.1150 -0.2224
18692THY    HP357762   1.878   5.415   4.586 -2.6778 -2.5614  0.6774
18692THY    HP457763   1.993   5.373   4.450 -0.1020 -1.6053  0.9310
18692THY    CP357764   2.161   5.593   4.485 -0.4567  0.1325  0.6466
18692THY    HP557765   2.230   5.510   4.466 -3.1184 -0.0972 -1.6719
18692THY    HP657766   2.215   5.682   4.518  1.8452 -1.7214  0.0453
18692THY    HP757767   2.110   5.601   4.388  2.6625 -1.6457  0.2832
18692THY    CA357768   2.136   5.363   4.726 -0.2395  0.3636 -0.3523
18692THY    HA357769   2.090   5.294   4.656  0.1408 -1.5232  1.2281
18692THY    CA457770   2.215   5.316   4.833  0.6304 -0.1711  0.1179
18692THY    HA457771   2.219   5.209   4.851 -1.1853  0.0827  0.0607
18692THY    CA557772   2.295   5.399   4.910 -0.5537  0.0328 -0.2507
18692THY    CM157773   2.382   5.348   5.022  0.7717 -0.3067  0.5990
18692THY    HM157774   2.332   5.299   5.107  1.6567 -0.1841 -0.1269
18692THY    HM257775   2.445   5.427   5.064  3.7849 -0.7175 -1.4095
18692THY    HM357776   2.453   5.276   4.980  1.9380  0.0255  1.5289
18692THY    CA657777   2.277   5.538   4.895  0.2011 -0.0227 -0.4903
18692THY    HA657778   2.334   5.609   4.954  1.2936  1.1349 -2.2515
18693THY      O57779   7.367   5.170   2.456 -0.0688 -0.4332  0.7619
18693THY     HO57780   7.288   5.172   2.513  0.2814  0.0799  0.2418
18693THY    CA157781   7.444   5.275   2.483 -0.1368 -0.4158  0.5663
18693THY    CA257782   7.582   5.271   2.457  0.4439  0.1987 -0.0247
18693THY    CP157783   7.644   5.148   2.400  0.1085  0.1600  0.3616
18693THY    HP157784   7.573   5.081   2.351  1.0776 -0.5728 -0.1617
18693THY    CP257785   7.728   5.068   2.498 -0.6594 -0.2391  1.0142
18693THY    HP257786   7.668   5.018   2.575  3.0847  1.2812 -1.5670
18693THY    HP357787   7.791   5.128   2.564  0.1962  1.1325 -1.2643
18693THY    HP457788   7.789   4.990   2.452  0.2016  0.4596  1.2600
18693THY    CP357789   7.730   5.186   2.282 -0.2268 -0.0095 -0.0996
18693THY    HP557790   7.677   5.256   2.217  2.1656 -0.0993  1.7699
18693THY    HP657791   7.766   5.097   2.229 -0.0995 -0.9086  0.4761
18693THY    HP757792   7.815   5.242   2.322 -0.9354  1.2632  0.1056
18693THY    CA357793   7.661   5.392   2.485 -0.2323  0.0106 -0.5912
18693THY    HA357794   7.764   5.396   2.450 -1.1175 -2.8313 -0.0580
18693THY    CA457795   7.586   5.506   2.534 -0.2620  0.2081  0.1676
18693THY    HA457796   7.641   5.597   2.556 -0.3960 -0.4218  0.4081
18693THY    CA557797   7.450   5.502   2.562 -0.5912 -0.0390 -0.1927
18693THY    CM157798   7.379   5.611   2.614 -0.0391 -0.0960 -0.8845
18693THY    HM157799   7.273   5.595   2.636 -0.0906 -1.0170 -1.9031
18693THY    HM257800   7.384   5.700   2.550 -0.4888 -0.1725 -0.9144
18693THY    HM357801   7.421   5.652   2.707 -0.6589  0.7351 -2.0589
18693THY    CA657802   7.383   5.385   2.544  0.0733  0.2710  0.1013
18693THY    HA657803   7.279   5.375   2.575 -0.2115 -1.2107 -2.2713
18694THY      O57804   6.238   3.104   1.713  0.5129 -0.4150  0.0184
18694THY     HO57805   6.170   3.037   1.699 -1.2191 -1.5377  1.8904
18694THY    CA157806   6.337   3.053   1.795 -0.8842  0.6754  0.5101
18694THY    CA257807   6.461   3.114   1.798  0.3616 -0.7552  0.2670
18694THY    CP157808   6.496   3.219   1.704  0.4850 -0.4858 -0.3505
18694THY    HP157809   6.419   3.228   1.627  0.4790 -0.3995  0.3984
18694THY    CP257810   6.634   3.200   1.645 -0.4486  0.0431  0.3481
18694THY    HP257811   6.648   3.241   1.545  0.2749 -0.6311 -1.4474
18694THY    HP357812   6.636   3.090   1.643 -1.5234  1.2215  0.2789
18694THY    HP457813   6.708   3.230   1.719 -0.4898  0.3439 -0.2739
18694THY    CP357814   6.486   3.352   1.756  0.2110  0.4625 -0.3482
18694THY    HP557815   6.565   3.361   1.832  0.1757  0.4360  0.2173
18694THY    HP657816   6.384   3.356   1.795 -0.4098 -0.8956 -1.9178
18694THY    HP757817   6.521   3.423   1.680 -0.8297  0.7061  0.4416
18694THY    CA357818   6.555   3.078   1.904  0.0578 -0.1014 -0.0828
18694THY    HA357819   6.655   3.120   1.906 -0.0213 -0.7893  0.1588
18694THY    CA457820   6.524   2.964   1.978 -0.0029  0.1236 -0.5638
18694THY    HA457821   6.592   2.935   2.057 -0.7338  1.0760  0.2519
18694THY    CA557822   6.400   2.897   1.966 -0.0419 -0.2075  0.3477
18694THY    CM157823   6.374   2.772   2.052 -0.0646  0.0794 -0.2965
18694THY    HM157824   6.373   2.674   2.003  1.3475  0.0041 -0.2824
18694THY    HM257825   6.274   2.777   2.098  0.8427  2.4303 -2.1723
18694THY    HM357826   6.444   2.777   2.136 -1.5561  1.2935  2.7412
18694THY    CA657827   6.305   2.949   1.880  0.4046  0.3076  0.4385
18694THY    HA657828   6.208   2.901   1.873  0.6432  0.0352 -0.0065
18695THY      O57829   6.782   4.405   7.063  0.1341  0.3595  0.0803
18695THY     HO57830   6.837   4.479   7.093  3.1270  1.7570 -2.4681
18695THY    CA157831   6.868   4.298   7.061 -0.0095 -0.1883  0.5930
18695THY    CA257832   6.821   4.173   7.024 -0.2993  0.3946 -0.1513
18695THY    CP157833   6.676   4.147   6.998  0.2826 -0.1060  0.2818
18695THY    HP157834   6.631   4.211   7.075  1.0512  0.3922  0.2432
18695THY    CP257835   6.625   4.007   7.008  0.5233 -1.0441 -0.3246
18695THY    HP257836   6.639   3.941   6.922 -1.2687 -1.3314 -0.3792
18695THY    HP357837   6.518   4.019   7.027  0.8161 -0.4749  1.7623
18695THY    HP457838   6.669   3.957   7.095  3.0993 -2.2815 -0.3260
18695THY    CP357839   6.624   4.188   6.864 -0.3278  0.1760 -0.0693
18695THY    HP557840   6.647   4.291   6.837  2.0996 -3.6205 -1.3816
18695THY    HP657841   6.516   4.175   6.851 -0.2623 -0.4331 -0.0246
18695THY    HP757842   6.677   4.127   6.790 -1.9033 -1.1400  0.1129
18695THY    CA357843   6.917   4.066   6.995  0.0007 -0.4091  0.3414
18695THY    HA357844   6.888   3.970   6.953  1.5563  1.5272 -1.0868
18695THY    CA457845   7.048   4.084   7.041 -0.2900  0.3836  0.1858
18695THY    HA457846   7.119   4.002   7.030 -2.0769  0.8333 -1.5073
18695THY    CA557847   7.094   4.210   7.082  0.0572 -0.7422 -0.0412
18695THY    CM157848   7.237   4.240   7.120  0.5253  0.4508 -0.2017
18695THY    HM157849   7.255   4.343   7.154 -1.1595 -0.3837  0.4014
18695THY    HM257850   7.305   4.206   7.041  0.4401  0.9768 -1.6614
18695THY    HM357851   7.249   4.185   7.214  4.4662 -0.9581 -2.1462
18695THY    CA657852   7.001   4.312   7.099 -0.4842  0.5300  0.2049
18695THY    HA657853   7.040   4.403   7.144 -2.6189  0.2150  1.3317
18696THY      O57854   6.740   4.869   1.925 -0.2836 -0.1275 -0.0380
18696THY     HO57855   6.821   4.921   1.943 -0.4366 -0.5784  0.3654
18696THY    CA157856   6.666   4.880   2.042  0.6189  0.4659  0.1676
18696THY    CA257857   6.555   4.798   2.069  0.3269  0.5290 -0.2790
18696THY    CP157858   6.513   4.690   1.967  0.0781  0.0799 -0.1578
18696THY    HP157859   6.592   4.700   1.891  1.5735  1.3604 -1.6519
18696THY    CP257860   6.370   4.716   1.904 -0.8569  0.6628 -0.4478
18696THY    HP257861   6.367   4.816   1.858  0.4009 -0.3139 -0.8445
18696THY    HP357862   6.297   4.723   1.986 -2.9927 -1.1707 -0.2614
18696THY    HP457863   6.348   4.641   1.828 -1.2040  1.8878 -1.6212
18696THY    CP357864   6.508   4.548   2.018 -0.7823 -0.1439 -0.1640
18696THY    HP557865   6.433   4.541   2.098 -0.7866 -0.2842 -2.1880
18696THY    HP657866   6.600   4.513   2.066 -0.8780 -0.5498 -0.9987
18696THY    HP757867   6.493   4.475   1.938 -0.8424  0.2629 -0.6028
18696THY    CA357868   6.494   4.809   2.193  0.3088 -0.2981 -0.4895
18696THY    HA357869   6.409   4.746   2.218 -1.7041 -2.2472  1.2626
18696THY    CA457870   6.538   4.916   2.275  0.5288  0.1193 -0.5232
18696THY    HA457871   6.474   4.934   2.362 -0.4928 -1.0794  2.1021
18696THY    CA557872   6.645   5.005   2.249 -0.2585  0.2655 -0.4664
18696THY    CM157873   6.673   5.127   2.326  0.0419 -0.1048 -0.1290
18696THY    HM157874   6.619   5.212   2.282  0.1939  2.4699  1.4189
18696THY    HM257875   6.780   5.146   2.337 -0.2852  2.5283  0.5904
18696THY    HM357876   6.638   5.125   2.430  1.4964  0.4112 -2.8795
18696THY    CA657877   6.705   4.987   2.125  0.1579 -0.7440  0.1239
18696THY    HA657878   6.786   5.052   2.094 -2.0860 -1.6387  2.6945
18697THY      O57879   3.252   8.527   4.651 -0.2339  0.5288 -0.6220
18697THY     HO57880   3.299   8.546   4.734 -0.3397  0.6764 -1.0007
18697THY    CA157881   3.317   8.596   4.548 -0.4887 -0.0835  0.5237
18697THY    CA257882   3.258   8.710   4.492  0.6506 -0.5933  0.6471
18697THY    CP157883   3.121   8.754   4.544  0.3670 -0.3061  0.7362
18697THY    HP157884   3.064   8.676   4.594  0.6942 -0.2556  0.5299
18697THY    CP257885   3.024   8.793   4.433  0.6033 -0.4683 -0.1835
18697THY    HP257886   2.926   8.822   4.472  0.3861  0.4113 -1.9716
18697THY    HP357887   3.003   8.708   4.367  0.5688  1.0483 -1.3976
18697THY    HP457888   3.070   8.874   4.375  1.2830 -2.4807 -1.9113
18697THY    CP357889   3.126   8.864   4.652 -0.4450  0.4060 -0.0781
18697THY    HP557890   3.177   8.820   4.738 -1.9382 -0.5810 -4.1309
18697THY    HP657891   3.026   8.894   4.684 -0.9426 -0.6871 -0.4992
18697THY    HP757892   3.176   8.952   4.610 -0.2576  0.9149  0.0603
18697THY    CA357893   3.329   8.775   4.394 -0.8135 -0.2526 -0.5131
18697THY    HA357894   3.282   8.855   4.337 -2.0083  0.8169 -0.4393
18697THY    CA457895   3.445   8.714   4.343 -0.5100  0.2452 -0.1112
18697THY    HA457896   3.491   8.754   4.253  0.5934  0.3470 -1.0818
18697THY    CA557897   3.499   8.599   4.395 -0.4122  0.5889 -0.1115
18697THY    CM157898   3.614   8.518   4.323 -0.3564  0.1724 -0.2717
18697THY    HM157899   3.599   8.509   4.214 -1.4265  0.3044 -0.2158
18697THY    HM257900   3.614   8.414   4.357 -0.0103 -2.7089 -1.3217
18697THY    HM357901   3.711   8.561   4.350  0.4671 -0.7983 -1.4338
18697THY    CA657902   3.436   8.539   4.503  0.3095 -0.3130  0.1457
18697THY    HA657903   3.463   8.445   4.549 -1.9181  0.4535 -0.1734
18698THY      O57904   2.104   8.505   3.153 -0.5562 -0.1998  0.0810
18698THY     HO57905   2.032   8.518   3.089 -1.2531  0.8854  2.1177
18698THY    CA157906   2.189   8.607   3.134 -0.5071 -0.4082  0.1121
18698THY    CA257907   2.329   8.586   3.153  0.9664 -0.0740 -0.8765
18698THY    CP157908   2.397   8.458   3.203 -0.3912  0.7560 -0.0692
18698THY    HP157909   2.317   8.388   3.231 -0.1809  1.8589  0.1125
18698THY    CP257910   2.487   8.474   3.335  0.2219 -0.2289 -0.2862
18698THY    HP257911   2.545   8.567   3.342  0.3488 -0.3293 -0.3587
18698THY    HP357912   2.567   8.400   3.339 -0.4376  0.0804 -0.9954
18698THY    HP457913   2.417   8.468   3.419 -0.8166 -0.7927  2.3632
18698THY    CP357914   2.496   8.398   3.097 -0.2809  0.1858  0.6020
18698THY    HP557915   2.449   8.384   3.000  1.6939 -0.8632  0.9427
18698THY    HP657916   2.543   8.305   3.130  0.7428  0.3817  1.1696
18698THY    HP757917   2.579   8.470   3.098  2.9402  3.8884 -2.6179
18698THY    CA357918   2.408   8.698   3.128  0.3331 -0.2358 -0.3292
18698THY    HA357919   2.516   8.692   3.130  0.4125  0.2129  0.9843
18698THY    CA457920   2.354   8.819   3.084 -0.2548 -0.2267 -0.3819
18698THY    HA457921   2.415   8.906   3.062  0.5720  1.3158 -0.5275
18698THY    CA557922   2.226   8.830   3.057  0.5029 -0.2322  0.7561
18698THY    CM157923   2.174   8.963   3.006 -0.0074  0.3300 -0.3522
18698THY    HM157924   2.138   8.945   2.904  0.3837 -0.3410  2.2869
18698THY    HM257925   2.252   9.039   2.999 -0.9326  1.3121  0.7295
18698THY    HM357926   2.090   9.001   3.065 -0.6848 -0.5864 -0.3861
18698THY    CA657927   2.141   8.724   3.081  0.2117 -0.2811 -0.5610
18698THY    HA657928   2.034   8.741   3.085  0.7058  2.4621  3.1130
18699THY      O57929   1.754   6.479   5.146  0.6157 -0.3478 -0.3642
18699THY     HO57930   1.723   6.542   5.078 -1.8419 -1.0453 -2.1505
18699THY    CA157931   1.644   6.467   5.221 -0.1477  0.0492 -0.1504
18699THY    CA257932   1.626   6.352   5.306  0.3537  0.3641 -0.0896
18699THY    CP157933   1.733   6.240   5.308 -0.2391 -0.4350  0.8295
18699THY    HP157934   1.833   6.276   5.283 -0.0462  0.5984  1.0316
18699THY    CP257935   1.690   6.130   5.205 -0.1887 -0.2087  0.0502
18699THY    HP257936   1.593   6.083   5.226 -1.0266 -1.8128  0.9881
18699THY    HP357937   1.771   6.055   5.200 -0.6626  0.8628 -0.5659
18699THY    HP457938   1.686   6.183   5.110  1.7366 -1.8815 -2.5482
18699THY    CP357939   1.741   6.177   5.442 -0.1787 -0.2106 -0.2157
18699THY    HP557940   1.657   6.109   5.456 -0.2618  1.2081  0.1514
18699THY    HP657941   1.762   6.259   5.511 -0.1593 -1.4451  0.8467
18699THY    HP757942   1.830   6.112   5.437  1.0385  0.2778  1.3456
18699THY    CA357943   1.503   6.347   5.380 -0.2986 -0.6488 -0.4341
18699THY    HA357944   1.496   6.257   5.441 -1.1837  0.6999  0.5211
18699THY    CA457945   1.414   6.448   5.377 -0.2153  0.0758 -0.4053
18699THY    HA457946   1.331   6.446   5.446  0.1223  0.5411  0.9153
18699THY    CA557947   1.437   6.561   5.291 -0.1756  0.2226 -0.5740
18699THY    CM157948   1.354   6.692   5.292  0.7044 -0.3318  0.1329
18699THY    HM157949   1.414   6.782   5.309  0.0087 -1.1957  0.7770
18699THY    HM257950   1.269   6.684   5.361 -0.2665 -1.3132  1.5436
18699THY    HM357951   1.309   6.714   5.194  1.3301 -0.0752  2.8637
18699THY    CA657952   1.555   6.570   5.216  0.6457 -0.4388 -0.6126
18699THY    HA657953   1.575   6.663   5.164 -0.1738 -1.0911 -0.7873
18700THY      O57954   7.884   3.874   7.601 -0.1250  0.1532 -0.0561
18700THY     HO57955   7.865   3.824   7.682  1.9015  0.2192 -0.7698
18700THY    CA157956   7.845   3.799   7.494 -0.1217 -0.3442 -0.0241
18700THY    CA257957   7.909   3.792   7.372  0.6296 -0.2296 -0.1281
18700THY    CP157958   8.043   3.868   7.351 -0.2278  0.0345  0.1946
18700THY    HP157959   8.077   3.905   7.449  0.4607 -0.3489  0.6143
18700THY    CP257960   8.030   3.992   7.262 -0.0156 -0.0832  0.7624
18700THY    HP257961   8.128   4.041   7.255 -0.2992 -0.6688  1.2659
18700THY    HP357962   7.958   4.060   7.309  0.3478  2.2863 -0.3881
18700THY    HP457963   7.991   3.972   7.161 -0.6707  0.3926 -0.4405
18700THY    CP357964   8.159   3.778   7.307 -0.1774 -0.4836  0.3688
18700THY    HP557965   8.255   3.831   7.313 -0.0670  1.2278  0.0306
18700THY    HP657966   8.145   3.740   7.206 -1.0425  0.3306 -1.5960
18700THY    HP757967   8.161   3.682   7.361  1.7860  1.2508  1.2894
18700THY    CA357968   7.858   3.712   7.270  0.1998  0.4563  0.1865
18700THY    HA357969   7.912   3.713   7.176  1.0917  0.9537  0.5426
18700THY    CA457970   7.731   3.645   7.287 -0.0045 -0.0837 -0.2842
18700THY    HA457971   7.683   3.590   7.206 -0.4043 -1.7037  2.2684
18700THY    CA557972   7.673   3.652   7.410  0.1140 -0.4219 -0.1057
18700THY    CM157973   7.543   3.582   7.437 -1.1551 -0.9284 -0.1929
18700THY    HM157974   7.572   3.476   7.447 -0.5548  1.3406  0.1332
18700THY    HM257975   7.475   3.588   7.352 -1.3950 -0.6781  0.7038
18700THY    HM357976   7.489   3.619   7.524 -2.7990 -2.2562  0.6395
18700THY    CA657977   7.728   3.724   7.519  0.5870  0.7309 -0.4054
18700THY    HA657978   7.688   3.717   7.619 -1.2929  0.0063 -0.6012
18701THY      O57979   6.611   7.979   3.662  0.0459 -0.0585  0.0091
18701THY     HO57980   6.532   7.924   3.669 -0.2226 -1.4920  0.1860
18701THY    CA157981   6.708   7.932   3.741  0.4970 -0.1872  0.1264
18701THY    CA257982   6.833   7.992   3.764  0.2490  0.5461 -0.5244
18701THY    CP157983   6.880   8.116   3.681 -0.1758  0.3289  0.7604
18701THY    HP157984   6.792   8.167   3.639 -0.4221 -0.9472 -0.6494
18701THY    CP257985   6.987   8.082   3.577 -0.1877 -0.4751 -0.2332
18701THY    HP257986   7.067   8.040   3.640 -0.8799  0.5854 -0.0043
18701THY    HP357987   7.023   8.169   3.522 -1.6480 -0.7824  0.2160
18701THY    HP457988   6.943   8.013   3.504  0.2318 -1.0064  0.0610
18701THY    CP357989   6.929   8.226   3.773  0.4263  0.2854 -0.3499
18701THY    HP557990   6.869   8.240   3.864 -2.0982 -1.4089  0.7693
18701THY    HP657991   6.932   8.329   3.736 -0.9555  0.8253 -0.0902
18701THY    HP757992   7.032   8.201   3.800  0.3237  0.1271 -0.9538
18701THY    CA357993   6.920   7.941   3.856  0.0199  0.1046 -0.1180
18701THY    HA357994   7.020   7.975   3.881  0.1998 -2.8405  1.9079
18701THY    CA457995   6.884   7.821   3.923  0.2970 -0.1392  0.1451
18701THY    HA457996   6.962   7.773   3.982 -0.5348  1.5715  0.7985
18701THY    CA557997   6.757   7.773   3.917  0.2330 -0.2754 -0.5797
18701THY    CM157998   6.729   7.642   3.988  0.4862 -0.8250 -0.7953
18701THY    HM157999   6.808   7.570   3.964  1.3340  1.7628 -0.8193
18701THY    HM258000   6.631   7.606   3.954  1.0249 -2.3361 -0.9279
18701THY    HM358001   6.734   7.653   4.097  1.0065 -0.7664 -1.5613
18701THY    CA658002   6.662   7.834   3.831 -0.1914 -0.1918  0.4196
18701THY    HA658003   6.562   7.794   3.813  0.1507 -3.4920  0.7996
18702THY      O58004   5.146   1.404   3.291  0.0552  0.2161 -0.0434
18702THY     HO58005   5.100   1.482   3.256 -1.4000  1.6031 -0.2392
18702THY    CA158006   5.218   1.373   3.181  0.2783  0.2235  0.2312
18702THY    CA258007   5.328   1.281   3.190 -0.0940 -0.2455  0.7116
18702THY    CP158008   5.362   1.207   3.315 -0.5733  0.3192  0.0052
18702THY    HP158009   5.285   1.226   3.390 -0.0466  0.6889  0.7125
18702THY    CP258010   5.490   1.269   3.366  0.5550  0.0790 -0.3043
18702THY    HP258011   5.575   1.267   3.297  1.1703  0.8083  0.2338
18702THY    HP358012   5.528   1.219   3.456 -0.2529 -0.7497 -2.5663
18702THY    HP458013   5.462   1.366   3.409 -1.0453  1.2992 -1.2616
18702THY    CP358014   5.373   1.059   3.309  0.9580  0.3478  0.6531
18702THY    HP558015   5.406   1.011   3.401  0.8049 -1.5149 -3.4591
18702THY    HP658016   5.450   1.020   3.242  0.7041  0.6874 -0.4609
18702THY    HP758017   5.279   1.019   3.269  1.9406 -0.1068 -1.3318
18702THY    CA358018   5.403   1.262   3.076 -0.5464 -0.6937  0.2587
18702THY    HA358019   5.484   1.190   3.077 -1.3359  0.6298 -0.6487
18702THY    CA458020   5.383   1.341   2.961 -0.5945  0.0963  0.6341
18702THY    HA458021   5.440   1.325   2.871 -0.1663  0.7304 -1.7695
18702THY    CA558022   5.279   1.430   2.956 -0.5951  0.4940  0.0042
18702THY    CM158023   5.251   1.501   2.825 -0.3630  0.0848 -0.0588
18702THY    HM158024   5.235   1.430   2.743  1.6264 -1.2210  0.8921
18702THY    HM258025   5.341   1.548   2.784 -0.6296 -1.5485 -0.9125
18702THY    HM358026   5.165   1.568   2.826 -1.4478  1.9913 -1.3722
18702THY    CA658027   5.197   1.448   3.069  0.3256  0.5752 -0.3786
18702THY    HA658028   5.116   1.519   3.061 -0.3403  3.6568 -0.6378
18703THY      O58029   4.382   5.428   6.910 -0.4415 -0.0745 -0.4250
18703THY     HO58030   4.454   5.471   6.860  0.2380  2.5806  1.8726
18703THY    CA158031   4.321   5.348   6.827 -0.3823 -1.2588  0.1767
18703THY    CA258032   4.331   5.212   6.849 -0.6110  0.2649  1.1217
18703THY    CP158033   4.413   5.158   6.960 -1.1267 -0.1466  0.0589
18703THY    HP158034   4.465   5.237   7.016 -0.1572  2.0973 -2.0235
18703THY    CP258035   4.525   5.060   6.915  0.0322 -0.4414 -0.4966
18703THY    HP258036   4.612   5.076   6.980  1.4900 -2.6077  0.7348
18703THY    HP358037   4.557   5.086   6.814  3.4520 -0.2937 -3.4508
18703THY    HP458038   4.474   4.963   6.908 -0.2089 -0.8930 -0.3412
18703THY    CP358039   4.334   5.077   7.058  0.0944  0.2413 -0.0716
18703THY    HP558040   4.402   5.012   7.115  2.3186 -2.2045 -0.0326
18703THY    HP658041   4.270   5.004   7.007 -0.7367 -0.0546  0.8414
18703THY    HP758042   4.266   5.140   7.116 -1.1479 -1.0422 -0.1835
18703THY    CA358043   4.249   5.127   6.764 -0.2973 -0.6067 -0.5915
18703THY    HA358044   4.247   5.020   6.785  0.3968 -0.6816 -0.6225
18703THY    CA458045   4.183   5.187   6.653  0.8635 -0.1480  0.0759
18703THY    HA458046   4.122   5.119   6.594  0.0519  1.8391 -1.0065
18703THY    CA558047   4.181   5.321   6.629  0.6191 -0.3681 -0.2435
18703THY    CM158048   4.091   5.370   6.524 -0.3407 -0.1590 -0.9454
18703THY    HM158049   3.985   5.354   6.546 -0.4365 -0.4950 -0.7769
18703THY    HM258050   4.107   5.318   6.429 -1.7730 -0.7210 -0.4163
18703THY    HM358051   4.115   5.477   6.522  1.9245 -1.7476 -1.4175
18703THY    CA658052   4.248   5.407   6.722  0.3058 -0.0134  1.3207
18703THY    HA658053   4.236   5.515   6.726 -0.8929 -0.2514  1.2098
18704THY      O58054   5.859   3.272   6.441  0.3727  0.1373  0.4659
18704THY     HO58055   5.885   3.318   6.359  1.5437  0.0126 -0.3854
18704THY    CA158056   5.978   3.250   6.508  0.2536 -0.1270  0.3323
18704THY    CA258057   5.983   3.175   6.623  0.2615 -0.3442  0.6145
18704THY    CP158058   5.853   3.126   6.687 -0.0366  0.3324  0.3978
18704THY    HP158059   5.770   3.176   6.636 -1.4985 -0.2424 -2.4512
18704THY    CP258060   5.842   3.166   6.834 -0.1529  0.4157 -0.1492
18704THY    HP258061   5.740   3.151   6.871 -0.3844 -0.7128 -1.6292
18704THY    HP358062   5.878   3.269   6.849  1.3360 -0.2568 -0.5467
18704THY    HP458063   5.915   3.116   6.898 -0.6160  0.3395 -0.9334
18704THY    CP358064   5.847   2.973   6.677  0.3921 -0.3496  0.5997
18704THY    HP558065   5.780   2.942   6.759 -0.0756 -1.2363 -0.8085
18704THY    HP658066   5.930   2.909   6.707 -2.3646  0.3232 -3.0145
18704THY    HP758067   5.805   2.941   6.581 -0.8855  0.7227 -1.1413
18704THY    CA358068   6.105   3.131   6.683 -0.0412 -0.5147 -1.0650
18704THY    HA358069   6.107   3.066   6.770 -1.7439 -1.0970 -1.9776
18704THY    CA458070   6.220   3.156   6.607  0.1921  0.0222 -0.1984
18704THY    HA458071   6.317   3.117   6.639  0.2793 -0.7920 -0.6954
18704THY    CA558072   6.215   3.225   6.485  0.3064  0.1543 -0.0332
18704THY    CM158073   6.341   3.236   6.398  0.1687  0.2148  0.3662
18704THY    HM158074   6.387   3.136   6.397 -1.1447  0.0034 -0.2524
18704THY    HM258075   6.407   3.311   6.442  0.8099 -1.9934  1.2010
18704THY    HM358076   6.323   3.255   6.291  3.0290 -0.6865 -1.3421
18704THY    CA658077   6.095   3.274   6.437 -0.1367 -0.6637 -0.4547
18704THY    HA658078   6.102   3.339   6.351  1.8237 -0.5979 -0.4907
18705THY      O58079   0.996   2.960   3.824  0.1415  0.8207  0.3232
18705THY     HO58080   1.065   3.020   3.789  0.4938 -1.0470 -1.0683
18705THY    CA158081   0.890   3.042   3.828 -0.1901 -0.4735  0.2979
18705THY    CA258082   0.766   3.000   3.877  0.0237 -0.3421 -0.0879
18705THY    CP158083   0.750   2.864   3.936  1.3335 -0.3204  0.4263
18705THY    HP158084   0.847   2.835   3.977  1.0773  0.4510  0.6350
18705THY    CP258085   0.693   2.772   3.830 -0.3003 -0.1679 -0.4193
18705THY    HP258086   0.755   2.754   3.742 -0.8780 -0.5426 -0.6019
18705THY    HP358087   0.604   2.814   3.781  1.0688 -2.0063  0.4386
18705THY    HP458088   0.649   2.681   3.874 -1.2135  0.3099  0.2332
18705THY    CP358089   0.658   2.855   4.062  0.3615  0.0083  0.2162
18705THY    HP558090   0.698   2.926   4.134  1.8951 -0.9815  0.3961
18705THY    HP658091   0.665   2.751   4.097  3.3215  1.0713  0.6950
18705THY    HP758092   0.555   2.878   4.032  0.5227 -0.3674  0.4399
18705THY    CA358093   0.651   3.082   3.856  0.3760  0.4576  0.5882
18705THY    HA358094   0.552   3.055   3.891 -0.7728 -1.7247  1.6717
18705THY    CA458095   0.668   3.209   3.793  0.0200 -0.0616 -0.2677
18705THY    HA458096   0.586   3.266   3.750 -1.0501  0.4645 -1.3766
18705THY    CA558097   0.794   3.259   3.762 -0.0580 -0.5968  0.9329
18705THY    CM158098   0.814   3.379   3.672  0.4595 -0.6519 -0.0715
18705THY    HM158099   0.811   3.475   3.724 -0.7808 -0.6138 -0.1206
18705THY    HM258100   0.726   3.374   3.607 -2.1534  2.7280 -2.4036
18705THY    HM358101   0.910   3.366   3.620  0.0531 -1.7528  1.1553
18705THY    CA658102   0.907   3.172   3.774  0.3998 -0.3467 -0.2548
18705THY    HA658103   1.003   3.194   3.730 -0.5643 -1.8015  1.2940
18706THY      O58104   8.713   1.265   2.502 -0.0023  0.4594  0.1380
18706THY     HO58105   8.746   1.350   2.535 -0.8226 -2.7288  1.8640
18706THY    CA158106   8.822   1.190   2.471 -0.1061 -0.4911 -0.0782
18706THY    CA258107   8.799   1.056   2.435  0.1013 -0.0858  0.8056
18706THY    CP158108   8.669   0.977   2.431  0.4144 -0.6886  0.2379
18706THY    HP158109   8.587   1.048   2.451  0.2539  1.5552 -0.4907
18706THY    CP258110   8.646   0.883   2.549  0.0900  0.0110 -0.3490
18706THY    HP258111   8.679   0.945   2.634 -0.1395 -0.2466  0.1352
18706THY    HP358112   8.715   0.798   2.544 -0.1096  1.5764 -0.6328
18706THY    HP458113   8.544   0.847   2.562  0.0371 -1.1177 -0.6452
18706THY    CP358114   8.648   0.904   2.293 -0.1308 -0.1937  0.3546
18706THY    HP558115   8.543   0.873   2.291 -0.1045 -1.2989  0.2778
18706THY    HP658116   8.704   0.811   2.279 -1.0565  1.1506 -0.4448
18706THY    HP758117   8.664   0.981   2.216  2.3144 -0.3419 -0.2178
18706THY    CA358118   8.909   0.982   2.402 -0.6227  0.8058  0.2092
18706THY    HA358119   8.901   0.881   2.365  0.3843  0.8506  0.1026
18706THY    CA458120   9.036   1.042   2.391 -0.8576 -0.2134  0.4158
18706THY    HA458121   9.127   0.993   2.357 -0.4531  0.5369  0.6311
18706THY    CA558122   9.057   1.170   2.440  0.0788 -0.1077 -0.2760
18706THY    CM158123   9.194   1.219   2.469 -0.4003 -0.2565 -0.2651
18706THY    HM158124   9.219   1.211   2.576  1.3052 -0.7447 -2.1371
18706THY    HM258125   9.226   1.320   2.441  1.8697  0.9356 -0.5749
18706THY    HM358126   9.270   1.152   2.427 -0.3800 -2.8137  1.2012
18706THY    CA658127   8.949   1.248   2.483 -0.0729  0.5984  0.3157
18706THY    HA658128   8.964   1.350   2.517  1.3119  1.9156 -0.2834
18707THY      O58129   9.370   0.863   2.366  0.3395  0.6919 -0.0474
18707THY     HO58130   9.454   0.906   2.340  0.4554  1.6754  0.3434
18707THY    CA158131   9.364   0.879   2.503 -1.0243  0.1375  0.8639
18707THY    CA258132   9.295   0.794   2.587  0.0821 -0.2591 -0.0685
18707THY    CP158133   9.222   0.677   2.518  0.1189 -0.7989  0.4716
18707THY    HP158134   9.203   0.688   2.411 -1.3660 -0.8409 -1.8586
18707THY    CP258135   9.084   0.655   2.579 -0.6855 -0.0740  0.0047
18707THY    HP258136   9.038   0.753   2.562  0.8977 -1.9871  0.4851
18707THY    HP358137   9.087   0.621   2.683  0.5954  0.1010  0.5983
18707THY    HP458138   9.023   0.587   2.517 -0.2599 -3.5589  2.5141
18707THY    CP358139   9.307   0.554   2.524 -0.0464 -0.8299  0.9242
18707THY    HP558140   9.343   0.527   2.624 -5.0358  0.9798 -0.2078
18707THY    HP658141   9.388   0.563   2.450  0.5478 -0.7747 -2.7272
18707THY    HP758142   9.242   0.477   2.481  0.6187 -1.2331  0.5811
18707THY    CA358143   9.306   0.813   2.728 -0.2049  0.3020 -0.1811
18707THY    HA358144   9.261   0.740   2.794 -2.0169 -0.2025  0.4164
18707THY    CA458145   9.367   0.928   2.778 -0.2673  0.4482 -0.3482
18707THY    HA458146   9.383   0.940   2.885 -0.2891  0.1884  3.0265
18707THY    CA558147   9.427   1.024   2.689 -0.0745 -1.1673 -0.2105
18707THY    CM158148   9.504   1.143   2.747 -0.6508  0.4060 -0.0080
18707THY    HM158149   9.540   1.116   2.846 -1.1727  0.4552 -0.5530
18707THY    HM258150   9.438   1.231   2.750 -0.1154 -1.9688  0.5606
18707THY    HM358151   9.586   1.180   2.685 -0.9007 -0.9507 -1.6052
18707THY    CA658152   9.429   0.990   2.553 -0.3279 -0.2942  0.2636
18707THY    HA658153   9.479   1.062   2.488  0.8342  0.4065  0.1209
18708THY      O58154   4.748   1.947   7.598  0.0377 -0.0838 -0.0951
18708THY     HO58155   4.748   2.016   7.529  3.0975 -2.3449 -2.0882
18708THY    CA158156   4.624   1.936   7.651 -0.3816  0.1365  0.1212
18708THY    CA258157   4.587   1.832   7.736  0.9861 -0.5620  0.2110
18708THY    CP158158   4.689   1.724   7.761  0.0953 -0.3878 -0.0518
18708THY    HP158159   4.793   1.757   7.763 -0.2028  1.0821  0.9011
18708THY    CP258160   4.696   1.611   7.655 -0.2319 -0.4239 -0.2089
18708THY    HP258161   4.604   1.552   7.653 -1.4650 -0.5261  1.6221
18708THY    HP358162   4.776   1.541   7.682 -1.4520  1.1259 -1.0730
18708THY    HP458163   4.722   1.647   7.555  2.7852  0.0880 -0.6997
18708THY    CP358164   4.664   1.668   7.910  0.5504  0.8691  0.2953
18708THY    HP558165   4.755   1.626   7.954  0.0275  3.5421  1.7415
18708THY    HP658166   4.575   1.603   7.908  0.1447 -1.1626  0.8381
18708THY    HP758167   4.639   1.751   7.977 -2.7501 -0.1572  0.2906
18708THY    CA358168   4.455   1.819   7.786 -0.1803  0.6213 -0.1660
18708THY    HA358169   4.423   1.738   7.851  0.6652  0.2868 -0.7877
18708THY    CA458170   4.365   1.924   7.758 -0.0118 -0.1128 -0.5764
18708THY    HA458171   4.266   1.926   7.802 -1.1945 -2.5548  2.1899
18708THY    CA558172   4.405   2.037   7.682 -0.0531 -0.0744  0.2552
18708THY    CM158173   4.307   2.152   7.668  0.5856  1.1502 -0.2402
18708THY    HM158174   4.302   2.181   7.562  1.5313  1.1431 -0.0622
18708THY    HM258175   4.358   2.239   7.711  0.8096 -2.0199  1.3461
18708THY    HM358176   4.206   2.135   7.708  0.4270  0.5764 -0.6768
18708THY    CA658177   4.532   2.041   7.628 -1.0673 -0.3428 -0.3236
18708THY    HA658178   4.554   2.124   7.561 -1.5281 -1.2939 -0.9515
18709THY      O58179   7.321   5.851   2.833  0.0915  0.5904 -0.4544
18709THY     HO58180   7.406   5.818   2.866  0.1904 -1.1622 -2.1102
18709THY    CA158181   7.297   5.983   2.865  0.3638 -0.4022  0.8224
18709THY    CA258182   7.188   6.045   2.802 -0.4988 -0.6258  0.2293
18709THY    CP158183   7.085   5.956   2.720  0.1378 -0.3924  0.3507
18709THY    HP158184   7.117   5.851   2.718 -0.5025  1.0066  0.1091
18709THY    CP258185   7.056   6.005   2.573 -0.0749  0.0755  0.3991
18709THY    HP258186   7.021   5.924   2.507 -1.6561 -2.5358  2.9908
18709THY    HP358187   7.157   6.025   2.535  0.1787 -0.3389 -1.4438
18709THY    HP458188   6.987   6.090   2.572 -1.7164  2.1548 -0.8108
18709THY    CP358189   6.958   5.950   2.794 -0.5820 -0.2466  0.2845
18709THY    HP558190   6.899   5.871   2.746  1.8131  0.1749 -1.9265
18709THY    HP658191   6.904   6.045   2.798 -0.3042  0.6290  0.4102
18709THY    HP758192   6.967   5.922   2.899 -0.5221 -0.3759 -0.2034
18709THY    CA358193   7.174   6.183   2.805  0.6185  0.0766  0.0070
18709THY    HA358194   7.090   6.228   2.753 -0.1165  2.2763  1.3277
18709THY    CA458195   7.255   6.258   2.885  0.7361  0.7043 -0.1435
18709THY    HA458196   7.251   6.366   2.898 -0.3370 -0.8902  0.0556
18709THY    CA558197   7.367   6.194   2.945  0.3205  0.3846 -0.3273
18709THY    CM158198   7.463   6.270   3.032  0.4017  0.1739 -0.3700
18709THY    HM158199   7.558   6.290   2.981 -0.8621 -2.0089  0.3582
18709THY    HM258200   7.482   6.213   3.123 -1.8074 -0.2998 -2.0126
18709THY    HM358201   7.418   6.368   3.052 -2.1457 -2.8905 -0.7330
18709THY    CA658202   7.393   6.060   2.936  0.0349  0.6544  0.2337
18709THY    HA658203   7.483   6.024   2.985 -0.6104  2.5835  1.1046
18710THY      O58204   5.938   7.758   4.593 -0.5336 -0.0199 -0.1399
18710THY     HO58205   5.934   7.849   4.627  1.3044  0.2525 -0.1097
18710THY    CA158206   5.909   7.680   4.691  0.9103 -0.3709 -0.0446
18710THY    CA258207   5.920   7.538   4.679  0.3389 -0.2374  0.1983
18710THY    CP158208   5.936   7.471   4.544  0.3549 -0.1122 -0.0422
18710THY    HP158209   5.932   7.540   4.459  0.1024  1.0603  1.4628
18710THY    CP258210   5.811   7.393   4.509  0.3130 -0.2515 -0.6361
18710THY    HP258211   5.821   7.334   4.417  0.1104  0.1172 -1.2627
18710THY    HP358212   5.725   7.461   4.515  1.2501 -1.8780  0.7777
18710THY    HP458213   5.799   7.312   4.582 -0.6693  0.4056  0.0802
18710THY    CP358214   6.064   7.392   4.532  0.6829 -0.9900 -0.1182
18710THY    HP558215   6.147   7.459   4.560 -0.0455 -0.0849  0.4233
18710THY    HP658216   6.081   7.342   4.435 -0.4727 -0.8788 -0.7467
18710THY    HP758217   6.070   7.315   4.610 -0.5882 -0.8257 -0.0669
18710THY    CA358218   5.885   7.459   4.792  0.0854  0.1977 -0.0026
18710THY    HA358219   5.887   7.350   4.787  2.1941  0.3849 -0.0199
18710THY    CA458220   5.870   7.522   4.914  0.6818  0.5676 -0.4749
18710THY    HA458221   5.838   7.462   4.999 -1.7866 -1.4593 -2.2266
18710THY    CA558222   5.867   7.661   4.926 -0.5903  0.1736 -0.1600
18710THY    CM158223   5.826   7.724   5.054 -0.1787  0.8989  0.6875
18710THY    HM158224   5.882   7.674   5.133  0.9223 -0.7464 -0.8258
18710THY    HM258225   5.719   7.704   5.066 -0.2954 -2.1563 -1.2011
18710THY    HM358226   5.860   7.829   5.059  1.4786  0.8079  0.1803
18710THY    CA658227   5.887   7.737   4.814 -1.0442 -0.3046 -0.0924
18710THY    HA658228   5.888   7.845   4.827 -0.3311  1.4731 -0.2900
18711THY      O58229   0.979   0.143   3.425  0.3115 -0.9563  0.2970
18711THY     HO58230   0.956   0.151   3.519 -2.5402 -1.3261 -1.7726
18711THY    CA158231   0.974   0.270   3.376 -0.1343  0.1447  0.4889
18711THY    CA258232   1.015   0.304   3.241 -0.2164  0.3579 -0.3693
18711THY    CP158233   1.069   0.196   3.144 -0.3090  0.5431  0.6615
18711THY    HP158234   1.055   0.102   3.198 -2.0730 -0.6210  0.1969
18711THY    CP258235   1.216   0.211   3.121 -0.1386 -0.5865 -0.5863
18711THY    HP258236   1.268   0.178   3.211 -4.4064  1.8702 -1.3686
18711THY    HP358237   1.236   0.315   3.092  1.1856 -0.7475 -0.8753
18711THY    HP458238   1.262   0.137   3.054 -1.8611 -2.3280 -0.1722
18711THY    CP358239   0.978   0.189   3.014  0.2842 -0.4670 -0.2324
18711THY    HP558240   1.007   0.109   2.945  0.9896 -0.4722  0.0241
18711THY    HP658241   0.997   0.284   2.962 -0.2799 -1.1396 -0.4753
18711THY    HP758242   0.876   0.173   3.053  0.3580 -0.2385 -0.1533
18711THY    CA358243   1.007   0.442   3.200  0.1537 -0.0258 -0.1138
18711THY    HA358244   1.043   0.469   3.100 -3.5771 -1.6225 -0.4858
18711THY    CA458245   0.948   0.533   3.283 -0.1991 -0.0655  0.2488
18711THY    HA458246   0.944   0.639   3.262  0.4044 -0.1693  0.2564
18711THY    CA558247   0.922   0.497   3.417  0.0130 -0.0676 -0.6654
18711THY    CM158248   0.884   0.603   3.519 -0.2302 -0.7980 -0.2142
18711THY    HM158249   0.776   0.622   3.520 -0.1803  1.0613  0.2180
18711THY    HM258250   0.926   0.698   3.486  0.8065  1.8952  0.3736
18711THY    HM358251   0.914   0.582   3.623  0.5101 -1.1071 -0.7438
18711THY    CA658252   0.937   0.369   3.464 -0.3889 -0.1820 -0.3965
18711THY    HA658253   0.907   0.343   3.565  0.9663  0.6254  1.0541
18712THY      O58254   3.764   5.912   6.278  0.7869  0.8919  0.6067
18712THY     HO58255   3.708   5.958   6.213 -0.0097  1.2563  0.1754
18712THY    CA158256   3.812   6.020   6.352 -0.2335 -0.8609  0.1550
18712THY    CA258257   3.928   6.002   6.434  0.0906  0.7257  0.7826
18712THY    CP158258   4.009   5.871   6.440 -0.3021  0.0201  0.5033
18712THY    HP158259   3.951   5.788   6.400  1.1929  1.6149 -1.4323
18712THY    CP258260   4.038   5.817   6.586 -0.3980 -0.5870  0.1635
18712THY    HP258261   4.058   5.710   6.580 -1.0860 -1.8928  0.0830
18712THY    HP358262   3.944   5.817   6.643 -0.0904 -0.0661  0.8709
18712THY    HP458263   4.122   5.874   6.627  0.5620 -2.2245 -0.0058
18712THY    CP358264   4.132   5.885   6.349  0.2674 -0.4912 -0.0514
18712THY    HP558265   4.173   5.985   6.369  1.0723  1.6428 -0.7511
18712THY    HP658266   4.084   5.873   6.251 -1.2306  0.4150 -1.9172
18712THY    HP758267   4.206   5.811   6.378 -0.5433  0.5268 -0.4930
18712THY    CA358268   3.972   6.115   6.508 -0.2004  0.0069 -0.1243
18712THY    HA358269   4.058   6.105   6.573  2.2080 -2.9680  0.0442
18712THY    CA458270   3.886   6.229   6.517 -0.3301  0.4869  0.4164
18712THY    HA458271   3.912   6.309   6.586  2.3214 -2.0384  1.9142
18712THY    CA558272   3.771   6.235   6.444  0.4282  0.4411 -0.5191
18712THY    CM158273   3.672   6.341   6.468  0.1207 -0.0837 -0.5024
18712THY    HM158274   3.689   6.411   6.551 -1.8405 -1.8428  2.2690
18712THY    HM258275   3.579   6.285   6.485  0.1271 -0.5998 -0.6727
18712THY    HM358276   3.653   6.398   6.377  0.7809  0.0464 -0.0630
18712THY    CA658277   3.735   6.131   6.353 -0.8740 -0.4959  0.4017
18712THY    HA658278   3.641   6.143   6.299 -1.5741  0.6965  0.4343
18713THY      O58279   0.670   5.516   2.294  1.0114  0.1887 -0.4436
18713THY     HO58280   0.627   5.548   2.375 -1.2608 -1.0473 -0.1626
18713THY    CA158281   0.584   5.425   2.240 -0.7183  0.2851  0.5872
18713THY    CA258282   0.639   5.307   2.173 -0.6756  0.5411  0.5894
18713THY    CP158283   0.792   5.288   2.162  0.1554  0.3793 -0.1613
18713THY    HP158284   0.834   5.342   2.249 -1.1542  0.8181  0.1773
18713THY    CP258285   0.852   5.338   2.038 -0.4907  0.0452  0.4074
18713THY    HP258286   0.962   5.343   2.046 -0.4747  0.0399  0.0786
18713THY    HP358287   0.827   5.444   2.027  1.6321  1.7846  1.1633
18713THY    HP458288   0.816   5.288   1.948 -3.7652  0.9758  0.8677
18713THY    CP358289   0.833   5.136   2.174 -0.2240  0.9927  0.2601
18713THY    HP558290   0.941   5.127   2.191  0.3273 -1.5964  1.1825
18713THY    HP658291   0.806   5.079   2.085 -1.0494  0.6945  1.0959
18713THY    HP758292   0.766   5.090   2.248 -2.3003 -0.3001  1.0846
18713THY    CA358293   0.548   5.216   2.133 -0.1167 -0.1898  0.1237
18713THY    HA358294   0.576   5.126   2.077  2.0908  0.7721  0.1697
18713THY    CA458295   0.410   5.225   2.162 -0.8223  0.7681  0.2209
18713THY    HA458296   0.341   5.143   2.149 -1.1416 -0.2131  0.6364
18713THY    CA558297   0.367   5.338   2.228  0.4768  0.2597  0.2202
18713THY    CM158298   0.221   5.357   2.256  1.2142  0.1401  0.3773
18713THY    HM158299   0.167   5.277   2.205  0.0436  1.3894  0.3226
18713THY    HM258300   0.179   5.451   2.218  0.8636 -0.7698 -0.1369
18713THY    HM358301   0.204   5.341   2.363 -2.4773 -0.4495 -0.4025
18713THY    CA658302   0.452   5.443   2.264  0.0753 -0.1152 -0.0100
18713THY    HA658303   0.419   5.536   2.309  0.2149 -2.0117  0.9903
18714THY      O58304   2.039   0.297   2.153  0.1961  0.0723  0.3693
18714THY     HO58305   1.949   0.265   2.136 -0.2386  1.4608  0.7990
18714THY    CA158306   2.124   0.274   2.053 -0.0974 -0.3623  0.2277
18714THY    CA258307   2.246   0.348   2.050 -0.3520 -0.3860  0.5407
18714THY    CP158308   2.277   0.442   2.167 -0.3296  0.0662 -0.4314
18714THY    HP158309   2.231   0.399   2.257  1.2071  2.0935  1.9013
18714THY    CP258310   2.207   0.587   2.155 -0.5648 -0.2267  0.0878
18714THY    HP258311   2.098   0.583   2.167 -0.6006 -0.1662  0.9489
18714THY    HP358312   2.226   0.626   2.055  2.6279  0.5089  0.7489
18714THY    HP458313   2.234   0.655   2.238 -1.2439 -0.4621  0.6574
18714THY    CP358314   2.429   0.447   2.208 -0.4141 -0.2625 -0.5528
18714THY    HP558315   2.488   0.488   2.126 -0.0044  0.5934  0.6463
18714THY    HP658316   2.454   0.349   2.249 -0.6840  0.8455 -0.1804
18714THY    HP758317   2.437   0.513   2.296  0.7282 -0.4073 -0.4875
18714THY    CA358318   2.332   0.320   1.946  0.4502  0.6317 -0.1780
18714THY    HA358319   2.424   0.374   1.928  0.5526 -0.0928 -0.5887
18714THY    CA458320   2.292   0.241   1.837 -0.7606 -0.4347 -0.0093
18714THY    HA458321   2.352   0.246   1.747 -0.0251  0.1273  2.8249
18714THY    CA558322   2.167   0.172   1.837  0.5522  0.8204 -0.3007
18714THY    CM158323   2.113   0.092   1.723 -0.1064  0.6074 -0.0062
18714THY    HM158324   2.197   0.037   1.680  0.2681  1.5072 -0.1522
18714THY    HM258325   2.074   0.159   1.645  0.0330  2.4067  2.2748
18714THY    HM358326   2.031   0.021   1.741  1.2251 -1.9709 -2.4059
18714THY    CA658327   2.086   0.195   1.944  0.6243  0.2160 -0.7633
18714THY    HA658328   1.982   0.166   1.931  0.8574 -1.8693 -0.8500
18715THY      O58329   6.912   4.829   7.260  0.3917 -0.2319 -0.3866
18715THY     HO58330   6.821   4.806   7.281 -0.1303  0.0036  1.6440
18715THY    CA158331   6.943   4.759   7.151 -0.0928  0.6189  0.3844
18715THY    CA258332   7.064   4.702   7.128 -0.2570 -0.5071 -0.3617
18715THY    CP158333   7.167   4.723   7.237 -0.8825  0.7715  0.1053
18715THY    HP158334   7.128   4.766   7.330  0.6633  1.2273  0.5875
18715THY    CP258335   7.279   4.828   7.209  0.8638  0.3388 -0.2203
18715THY    HP258336   7.338   4.840   7.301  1.2088  0.3557 -1.8332
18715THY    HP358337   7.231   4.924   7.190  1.4950 -1.8674 -0.2861
18715THY    HP458338   7.346   4.817   7.123  0.0749 -0.3519  0.2673
18715THY    CP358339   7.243   4.595   7.276 -0.2601 -0.1238 -0.1628
18715THY    HP558340   7.313   4.569   7.195  1.3111  1.6886 -1.9562
18715THY    HP658341   7.190   4.507   7.314 -0.4442 -0.5215 -0.2222
18715THY    HP758342   7.319   4.611   7.354 -1.9086  1.4403  0.3236
18715THY    CA358343   7.090   4.631   7.016  0.5258 -0.0796 -0.2269
18715THY    HA358344   7.188   4.589   6.993  0.3894 -0.2915 -0.4297
18715THY    CA458345   6.994   4.611   6.921 -0.6114 -0.0945  0.2584
18715THY    HA458346   7.012   4.555   6.830  0.8751  1.0869 -1.2666
18715THY    CA558347   6.870   4.687   6.935 -0.5918  0.2794  0.1663
18715THY    CM158348   6.772   4.685   6.818 -0.7782  0.1663  0.7012
18715THY    HM158349   6.826   4.643   6.733  1.1729  1.9910 -0.7081
18715THY    HM258350   6.749   4.790   6.796  0.4497 -1.8336  0.5923
18715THY    HM358351   6.682   4.625   6.838 -0.0398 -1.6341 -1.0849
18715THY    CA658352   6.848   4.760   7.051  0.5834 -0.1995  0.2641
18715THY    HA658353   6.760   4.823   7.060  0.3981 -2.1615  0.3467
18716THY      O58354   1.657   1.954   3.335  0.1375  0.2986  0.1055
18716THY     HO58355   1.655   1.902   3.253 -3.4065  0.4096 -0.1778
18716THY    CA158356   1.679   2.076   3.292 -0.6525  0.6671  0.4434
18716THY    CA258357   1.665   2.181   3.386  0.0762 -0.0290  0.0737
18716THY    CP158358   1.632   2.148   3.531  1.0540  0.5265 -1.2922
18716THY    HP158359   1.602   2.043   3.545  2.1162  0.5607 -1.6053
18716THY    CP258360   1.515   2.239   3.581 -0.3595 -0.3915 -0.6548
18716THY    HP258361   1.474   2.182   3.665 -0.3758 -1.8582 -2.9329
18716THY    HP358362   1.441   2.253   3.501  1.2842 -1.9714 -0.5907
18716THY    HP458363   1.551   2.339   3.608  0.3845 -0.9677 -0.7610
18716THY    CP358364   1.756   2.163   3.623 -0.2666  0.2409 -0.1624
18716THY    HP558365   1.801   2.258   3.594  0.2798 -1.9774 -1.0304
18716THY    HP658366   1.831   2.088   3.595 -1.3461  0.1036 -1.2147
18716THY    HP758367   1.743   2.158   3.732 -1.0328  0.3371  2.6620
18716THY    CA358368   1.681   2.314   3.332 -0.3550 -0.0126 -1.2262
18716THY    HA358369   1.665   2.406   3.388  3.2224 -2.0463  0.8160
18716THY    CA458370   1.720   2.339   3.199  0.4934 -0.2177  0.0875
18716THY    HA458371   1.740   2.441   3.170 -0.4668 -1.2800 -0.0043
18716THY    CA558372   1.733   2.225   3.117 -0.8102  0.2804  0.3727
18716THY    CM158373   1.782   2.244   2.975 -0.0021 -0.4263  0.6100
18716THY    HM158374   1.891   2.252   2.963  0.1869  1.7508  1.8167
18716THY    HM258375   1.741   2.338   2.937  0.1632  1.6668  1.5763
18716THY    HM358376   1.747   2.161   2.911  1.6087 -1.6042  0.7828
18716THY    CA658377   1.702   2.096   3.159 -0.0220 -0.2595 -0.1579
18716THY    HA658378   1.725   2.016   3.090  2.4124  0.3291 -0.0548
18717THY      O58379   2.824   6.066   5.743 -0.4689 -0.4074  0.0571
18717THY     HO58380   2.736   6.066   5.786 -0.4800 -0.4070 -0.9939
18717THY    CA158381   2.895   6.164   5.811 -0.2436  1.3165 -0.0836
18717THY    CA258382   3.032   6.188   5.784 -0.3970 -0.1504 -0.5102
18717THY    CP158383   3.114   6.107   5.683  0.7916  0.2393 -0.0704
18717THY    HP158384   3.076   6.005   5.671 -0.3505 -0.4293  0.4195
18717THY    CP258385   3.268   6.101   5.712  0.7202  0.1980  0.0061
18717THY    HP258386   3.320   6.039   5.639  0.6823  1.6494 -1.8122
18717THY    HP358387   3.279   6.044   5.805  2.1264 -0.4893 -0.8912
18717THY    HP458388   3.331   6.191   5.702 -0.2823 -3.3028  0.4673
18717THY    CP358389   3.095   6.170   5.544  0.0672  0.0263 -0.2504
18717THY    HP558390   3.102   6.280   5.544 -2.6808 -0.8442 -0.0050
18717THY    HP658391   2.990   6.152   5.521  0.3706 -0.2517 -1.7284
18717THY    HP758392   3.167   6.134   5.470  0.7190  1.5685 -2.3125
18717THY    CA358393   3.095   6.288   5.858 -0.5886 -0.7649  0.0701
18717THY    HA358394   3.193   6.329   5.833 -1.9200  0.1728  4.3904
18717THY    CA458395   3.027   6.348   5.963 -0.1949  0.5308  0.1693
18717THY    HA458396   3.069   6.431   6.020  0.3951  0.6995 -0.2417
18717THY    CA558397   2.898   6.305   5.995  0.3454  0.6119  0.2149
18717THY    CM158398   2.820   6.367   6.108 -0.4053  0.0449  0.4275
18717THY    HM158399   2.821   6.322   6.208 -0.0116  0.6063  1.6436
18717THY    HM258400   2.712   6.374   6.090 -0.3035 -2.0189 -1.8327
18717THY    HM358401   2.854   6.470   6.124 -0.2763  0.9978  0.2474
18717THY    CA658402   2.828   6.217   5.916 -0.2215 -0.5695  0.2171
18717THY    HA658403   2.730   6.183   5.947  0.1000 -0.3257 -0.5024
18718THY      O58404   2.951   8.485   4.850 -0.1812 -0.0951 -1.0239
18718THY     HO58405   2.983   8.467   4.760  0.3499  0.0344 -0.7488
18718THY    CA158406   2.814   8.470   4.853  0.5571 -0.2553 -0.7733
18718THY    CA258407   2.746   8.405   4.956 -0.0795 -0.0851  0.5204
18718THY    CP158408   2.818   8.373   5.082 -0.0755  0.0113  0.5198
18718THY    HP158409   2.927   8.386   5.073  0.0622  1.0807  0.1995
18718THY    CP258410   2.792   8.234   5.146  0.1834 -0.6082  0.0804
18718THY    HP258411   2.837   8.148   5.094  0.7246  2.6383 -1.7974
18718THY    HP358412   2.685   8.226   5.167  0.3085  0.6504  1.3031
18718THY    HP458413   2.841   8.225   5.244  0.3541 -0.7538 -0.7424
18718THY    CP358414   2.778   8.478   5.183 -0.0174 -0.0781 -0.1778
18718THY    HP558415   2.670   8.471   5.202 -0.5750 -2.3000  1.3009
18718THY    HP658416   2.792   8.579   5.143 -2.0785  0.8129  0.5093
18718THY    HP758417   2.819   8.461   5.283 -1.5726  0.8599  1.2066
18718THY    CA358418   2.608   8.389   4.951  0.1691  0.1107 -0.2902
18718THY    HA358419   2.557   8.342   5.034  2.2471  2.0235  0.6196
18718THY    CA458420   2.534   8.435   4.842 -0.5484 -0.2269  0.3352
18718THY    HA458421   2.428   8.413   4.832 -0.5354 -0.5351  0.4003
18718THY    CA558422   2.605   8.507   4.742  0.2358 -0.5774  0.5045
18718THY    CM158423   2.535   8.547   4.619 -0.3994 -0.6234 -0.0029
18718THY    HM158424   2.426   8.539   4.625 -0.6392  1.2828  3.1627
18718THY    HM258425   2.576   8.486   4.538 -1.1417 -0.1237 -1.1992
18718THY    HM358426   2.550   8.655   4.607  1.9757  1.3708 -0.0112
18718THY    CA658427   2.747   8.522   4.739 -0.1963  0.4122 -0.6314
18718THY    HA658428   2.800   8.567   4.656 -1.5143 -0.5934 -0.8794
18719THY      O58429   4.794   7.625   3.267  0.8254  0.0310  0.0805
18719THY     HO58430   4.853   7.563   3.221  0.7254 -0.8820  0.6365
18719THY    CA158431   4.663   7.599   3.237 -0.0197 -0.0239  0.4207
18719THY    CA258432   4.555   7.656   3.312  0.3333  0.2334  0.4376
18719THY    CP158433   4.586   7.747   3.428  0.0281  0.5636 -0.4646
18719THY    HP158434   4.668   7.813   3.399  0.1251  1.9847  0.0926
18719THY    CP258435   4.627   7.670   3.557 -0.2354 -0.4044  0.0450
18719THY    HP258436   4.627   7.738   3.643  0.6026 -0.2407 -0.1505
18719THY    HP358437   4.728   7.628   3.550 -0.2895 -0.4522 -0.0789
18719THY    HP458438   4.555   7.588   3.566  0.6772  1.4979 -0.5980
18719THY    CP358439   4.466   7.837   3.468 -0.7275  0.0557  0.3486
18719THY    HP558440   4.383   7.791   3.522 -1.0366 -1.6029 -1.1493
18719THY    HP658441   4.418   7.887   3.383  0.4456 -1.2628 -0.6944
18719THY    HP758442   4.510   7.913   3.534 -3.2529  0.7760  1.2884
18719THY    CA358443   4.429   7.596   3.302  0.3347 -0.0769 -0.1945
18719THY    HA358444   4.346   7.632   3.362  1.1433  1.9838 -1.5909
18719THY    CA458445   4.406   7.514   3.196 -0.2165  0.3187  0.1228
18719THY    HA458446   4.304   7.482   3.174  0.2442 -1.2999 -0.3581
18719THY    CA558447   4.500   7.471   3.105  0.1035 -0.2671 -0.2512
18719THY    CM158448   4.472   7.373   3.003  1.0881 -0.4064  0.2722
18719THY    HM158449   4.375   7.325   3.018  1.2202  1.9678  0.6274
18719THY    HM258450   4.548   7.296   3.022 -1.2080  0.8064 -1.8578
18719THY    HM358451   4.480   7.412   2.901 -1.7218 -0.2765  1.3966
18719THY    CA658452   4.635   7.514   3.128 -0.3932 -0.2471  0.5536
18719THY    HA658453   4.715   7.486   3.060 -0.9225 -0.5939 -0.1391
18720THY      O58454   0.971   4.649   4.227 -0.7939  0.7824  0.5635
18720THY     HO58455   0.976   4.731   4.279 -0.4653  0.0382  1.0349
18720THY    CA158456   0.931   4.551   4.302 -0.0607  0.4553 -0.0317
18720THY    CA258457   0.952   4.410   4.270 -0.2795  1.2656  0.2794
18720THY    CP158458   1.025   4.364   4.141  0.2082 -0.7945 -0.5657
18720THY    HP158459   1.049   4.441   4.067  0.6341 -0.1999 -0.1167
18720THY    CP258460   0.955   4.268   4.065  0.0401 -0.2173  0.3106
18720THY    HP258461   0.993   4.250   3.963  0.5461 -0.0715  0.5359
18720THY    HP358462   0.853   4.306   4.052  0.2322  0.8226  1.2307
18720THY    HP458463   0.934   4.172   4.112  1.4714  1.4251  0.7584
18720THY    CP358464   1.164   4.327   4.183  0.5379  0.0814 -0.2528
18720THY    HP558465   1.164   4.238   4.247  1.1103  0.6849  0.1615
18720THY    HP658466   1.219   4.409   4.232 -1.0216  0.3446  0.6868
18720THY    HP758467   1.233   4.310   4.100 -0.7613 -1.2210  0.6501
18720THY    CA358468   0.915   4.312   4.363  0.2649 -0.4060 -0.2462
18720THY    HA358469   0.916   4.205   4.349 -0.0621  0.9183 -0.4339
18720THY    CA458470   0.848   4.358   4.476  0.3305 -0.4166 -0.2886
18720THY    HA458471   0.793   4.286   4.535 -2.2617 -0.8360  1.2090
18720THY    CA558472   0.834   4.496   4.507  0.1234 -0.3812  0.1154
18720THY    CM158473   0.748   4.530   4.625  0.1102  0.2603 -0.1846
18720THY    HM158474   0.725   4.441   4.685  0.0630 -0.1372 -0.4426
18720THY    HM258475   0.652   4.575   4.596  0.3249 -0.8206 -0.4051
18720THY    HM358476   0.809   4.598   4.685 -1.9823  1.1195  1.0405
18720THY    CA658477   0.875   4.592   4.416  0.1292 -0.1682 -0.2668
18720THY    HA658478   0.853   4.697   4.428  3.2514 -1.1455  0.6041
18721THY      O58479   2.362   4.155   6.226  0.4426  0.0169 -0.0988
18721THY     HO58480   2.420   4.230   6.247 -0.7134  1.0406  0.5463
18721THY    CA158481   2.417   4.046   6.279 -0.2935 -0.2071 -0.2491
18721THY    CA258482   2.385   3.918   6.234  0.2327 -0.9769  0.3984
18721THY    CP158483   2.286   3.906   6.120  0.2475 -0.0933  0.3925
18721THY    HP158484   2.285   3.994   6.055  2.4839  0.2614  0.7284
18721THY    CP258485   2.143   3.888   6.181  0.4705 -0.0817  0.3449
18721THY    HP258486   2.066   3.884   6.103  0.7083 -0.3564  0.9534
18721THY    HP358487   2.122   3.966   6.256  0.8428 -0.7585  1.1075
18721THY    HP458488   2.142   3.793   6.236  0.5101  0.8251  0.8530
18721THY    CP358489   2.305   3.781   6.024 -0.4959 -0.7553  0.3133
18721THY    HP558490   2.273   3.821   5.927  0.0192 -0.2978  1.9020
18721THY    HP658491   2.264   3.684   6.052  1.3431 -1.5849 -0.7596
18721THY    HP758492   2.413   3.766   6.018 -0.2998 -0.0862  1.3335
18721THY    CA358493   2.433   3.807   6.303 -0.2060 -0.0012  0.2891
18721THY    HA358494   2.407   3.707   6.271  0.1495  2.5998 -0.7301
18721THY    CA458495   2.519   3.832   6.417 -0.3431 -0.5595 -0.1153
18721THY    HA458496   2.562   3.748   6.470  0.8005  1.1482  1.4583
18721THY    CA558497   2.554   3.964   6.448  0.0913  0.5072  0.5402
18721THY    CM158498   2.642   3.989   6.567  0.1062  0.5301  0.0781
18721THY    HM158499   2.591   4.001   6.663 -0.6175 -0.0784  2.4169
18721THY    HM258500   2.706   4.078   6.558  2.1859  1.4803 -1.2251
18721THY    HM358501   2.714   3.908   6.584 -0.2903  4.1719  0.3381
18721THY    CA658502   2.507   4.069   6.378 -0.7707 -0.8188  0.3273
18721THY    HA658503   2.535   4.167   6.416  1.4334  0.9105 -0.8837
18722THY      O58504   4.320   2.115   2.776  0.3207 -0.3867 -0.1412
18722THY     HO58505   4.234   2.142   2.741  0.3894 -0.8551 -0.5185
18722THY    CA158506   4.334   2.174   2.898  0.4207  0.5067  0.5063
18722THY    CA258507   4.391   2.106   3.006  0.2542 -0.1049  0.1825
18722THY    CP158508   4.425   1.962   2.983 -0.6201 -0.0423  0.7797
18722THY    HP158509   4.356   1.921   2.908  0.9294 -1.9029  1.4546
18722THY    CP258510   4.418   1.866   3.102 -0.5113 -0.1475  0.4446
18722THY    HP258511   4.319   1.852   3.146 -0.4692 -0.9753 -3.8599
18722THY    HP358512   4.478   1.905   3.185 -0.0339  1.0793 -2.6181
18722THY    HP458513   4.455   1.766   3.075  0.5521 -1.3929  1.1442
18722THY    CP358514   4.562   1.926   2.924 -0.2394  0.2631  0.2180
18722THY    HP558515   4.568   1.818   2.903 -2.2645  0.1652  0.0748
18722THY    HP658516   4.641   1.962   2.990 -0.3437 -0.6314  2.2158
18722THY    HP758517   4.575   1.976   2.827  1.1409  1.6964  2.8475
18722THY    CA358518   4.431   2.177   3.119  0.3660 -0.3387  0.0243
18722THY    HA358519   4.485   2.132   3.202  0.6604  0.1435  1.2211
18722THY    CA458520   4.387   2.314   3.128 -0.0215 -0.2912 -0.3376
18722THY    HA458521   4.405   2.379   3.213 -0.6580 -0.9321  0.6969
18722THY    CA558522   4.317   2.376   3.021 -0.3394 -0.0906 -0.2077
18722THY    CM158523   4.285   2.524   3.025  0.2627 -0.6965  0.4333
18722THY    HM158524   4.316   2.580   2.936  1.6749 -1.2322 -1.1013
18722THY    HM258525   4.347   2.569   3.103  3.3408 -2.3877 -0.5711
18722THY    HM358526   4.181   2.542   3.053  0.4717  0.4862 -0.1045
18722THY    CA658527   4.292   2.306   2.906 -0.2863  0.7337  0.6024
18722THY    HA658528   4.247   2.341   2.814 -0.7466  0.0128 -1.7104
18723THY      O58529   2.743   1.289   6.952  0.6348  0.5222  0.1268
18723THY     HO58530   2.741   1.302   7.048  0.7507  0.3820  1.3202
18723THY    CA158531   2.815   1.187   6.924  0.1326  0.2016  0.4907
18723THY    CA258532   2.856   1.163   6.793 -0.1162 -0.7649 -0.0052
18723THY    CP158533   2.824   1.264   6.683  0.3970 -0.2508 -0.2384
18723THY    HP158534   2.753   1.344   6.709  0.5862 -0.4584 -0.0019
18723THY    CP258535   2.753   1.200   6.562  0.3034 -0.2487  0.3950
18723THY    HP258536   2.816   1.119   6.523  1.7595  0.3466  1.1964
18723THY    HP358537   2.735   1.259   6.472 -0.5507 -1.5045 -1.6628
18723THY    HP458538   2.654   1.165   6.594  0.5655 -0.3730 -0.4767
18723THY    CP358539   2.942   1.343   6.626 -0.0602  0.3651 -0.0361
18723THY    HP558540   2.904   1.405   6.543 -1.1469 -0.9903 -2.3470
18723THY    HP658541   3.017   1.280   6.577  0.9145  2.0163 -0.1946
18723THY    HP758542   2.990   1.405   6.702  2.7855 -2.5102  1.5921
18723THY    CA358543   2.954   1.061   6.770 -0.5082 -0.4631  0.0503
18723THY    HA358544   2.990   1.041   6.670  1.1061  0.0723  0.0886
18723THY    CA458545   2.991   0.973   6.875 -0.0093 -0.5936  0.2283
18723THY    HA458546   3.060   0.890   6.863 -0.1358  0.8734 -0.1262
18723THY    CA558547   2.932   0.984   6.999  0.2709  0.1711 -0.1939
18723THY    CM158548   2.970   0.888   7.103  0.5952 -0.3175  0.2435
18723THY    HM158549   2.929   0.787   7.094 -0.1818 -2.3347  0.6843
18723THY    HM258550   2.946   0.924   7.204  0.6742  0.3296 -1.4324
18723THY    HM358551   3.078   0.869   7.101  1.0896  2.1294  2.2639
18723THY    CA658552   2.851   1.097   7.025  0.2747 -0.3463  0.0891
18723THY    HA658553   2.821   1.108   7.129  1.2503 -0.1083  0.6244
18724THY      O58554   0.948   2.642   7.549  0.0193 -0.3553 -0.1706
18724THY     HO58555   1.025   2.690   7.584 -0.3548  1.5836 -0.8987
18724THY    CA158556   0.855   2.737   7.534 -0.3365 -0.0531 -0.1326
18724THY    CA258557   0.734   2.714   7.472  0.0021  0.7176  0.1174
18724THY    CP158558   0.711   2.565   7.430  0.7405  0.4853 -0.5542
18724THY    HP158559   0.811   2.519   7.423  1.7831 -0.3793  1.7217
18724THY    CP258560   0.638   2.552   7.298  0.1512 -0.3394  0.1156
18724THY    HP258561   0.538   2.595   7.309  0.7550 -0.9451  1.7733
18724THY    HP358562   0.623   2.447   7.271 -0.7362  1.8728 -0.3759
18724THY    HP458563   0.671   2.605   7.207 -1.1212 -0.2390  1.1341
18724THY    CP358564   0.622   2.493   7.538  0.5324  0.0704  0.1363
18724THY    HP558565   0.606   2.386   7.519 -1.2393  0.7271  0.2535
18724THY    HP658566   0.522   2.538   7.532  0.4167  1.4880  0.1233
18724THY    HP758567   0.655   2.514   7.640 -0.0073  0.3097 -0.1437
18724THY    CA358568   0.639   2.809   7.452 -0.1286  0.1696  0.7319
18724THY    HA358569   0.547   2.785   7.399  0.3385 -0.3923  0.1340
18724THY    CA458570   0.666   2.934   7.510 -0.4943 -0.2229 -0.0194
18724THY    HA458571   0.585   3.007   7.504 -2.5458  0.7022 -2.0918
18724THY    CA558572   0.786   2.964   7.568 -0.9363 -0.2504  0.2250
18724THY    CM158573   0.818   3.100   7.615  0.0690  0.3124 -0.3159
18724THY    HM158574   0.901   3.145   7.560 -0.4611  0.3158  0.7043
18724THY    HM258575   0.851   3.092   7.719  2.1426 -0.4315 -2.4090
18724THY    HM358576   0.728   3.164   7.607 -0.4666 -1.5183 -1.2345
18724THY    CA658577   0.885   2.860   7.582  0.0578 -0.2453 -0.1141
18724THY    HA658578   0.983   2.883   7.623 -0.2837  0.8802 -0.5724
18725THY      O58579   7.299   3.937   5.910 -0.3195  0.7203 -0.4635
18725THY     HO58580   7.337   3.856   5.948 -1.8283  0.0326 -1.5412
18725THY    CA158581   7.291   4.027   6.013 -0.5618  0.4264  0.2615
18725THY    CA258582   7.282   4.165   5.982  0.0432  0.0328  0.0820
18725THY    CP158583   7.322   4.218   5.839  0.1889 -0.6453  0.1353
18725THY    HP158584   7.340   4.143   5.762 -2.0138  0.4540 -1.6711
18725THY    CP258585   7.455   4.303   5.855  0.0837  0.2922  0.5075
18725THY    HP258586   7.429   4.390   5.916  2.6305 -0.4235  1.8910
18725THY    HP358587   7.481   4.349   5.759  0.4841  0.7736  1.3009
18725THY    HP458588   7.529   4.237   5.902  0.7254 -0.3867  0.7196
18725THY    CP358589   7.214   4.298   5.768  0.2495  0.2022 -0.2672
18725THY    HP558590   7.148   4.226   5.718 -0.0196 -0.7373  0.6127
18725THY    HP658591   7.248   4.371   5.694 -0.6447  0.6240  0.6025
18725THY    HP758592   7.158   4.363   5.836  0.2827 -0.2007  0.1909
18725THY    CA358593   7.269   4.256   6.087 -0.6947 -0.4133 -0.2871
18725THY    HA358594   7.261   4.362   6.069 -1.1939 -0.8322 -0.3927
18725THY    CA458595   7.255   4.211   6.223 -0.4434  0.1545 -0.0760
18725THY    HA458596   7.235   4.276   6.308  2.0276  0.5912  0.2040
18725THY    CA558597   7.268   4.075   6.249  0.3520 -0.1789  0.0679
18725THY    CM158598   7.277   4.029   6.394  0.7525 -0.1678 -0.3765
18725THY    HM158599   7.369   4.055   6.447  1.6392 -1.2651 -1.1501
18725THY    HM258600   7.285   3.920   6.382 -0.6906 -0.4181 -0.4778
18725THY    HM358601   7.187   4.037   6.455  1.1548  0.4188 -0.2701
18725THY    CA658602   7.285   3.984   6.145  0.6134 -0.4361 -0.2610
18725THY    HA658603   7.291   3.879   6.171  2.0416  0.2494 -0.0414
18726THY      O58604   4.073   0.764   2.369 -0.3056  0.3176  0.1804
18726THY     HO58605   4.125   0.817   2.432  1.7686 -0.3643 -0.9637
18726THY    CA158606   4.083   0.630   2.402  0.2356  0.0581 -0.2925
18726THY    CA258607   4.067   0.528   2.309  0.4107 -0.6256 -0.1380
18726THY    CP158608   4.077   0.566   2.159  0.4463  0.4140 -0.0621
18726THY    HP158609   4.055   0.672   2.147 -2.6301  1.4843 -0.4811
18726THY    CP258610   3.964   0.499   2.080  0.6308 -0.2915 -0.4471
18726THY    HP258611   3.967   0.528   1.974 -0.4260 -0.2118  0.0040
18726THY    HP358612   3.869   0.526   2.126 -0.1634 -3.8783  4.3271
18726THY    HP458613   3.984   0.392   2.093  0.9324 -0.0492 -0.3629
18726THY    CP358614   4.204   0.522   2.086  0.6386  0.0973  0.0922
18726THY    HP558615   4.210   0.548   1.980  1.1299  0.1408  0.1711
18726THY    HP658616   4.202   0.413   2.098  0.7428 -1.1704 -0.0652
18726THY    HP758617   4.291   0.558   2.142  0.0263  0.0294  1.7590
18726THY    CA358618   4.091   0.398   2.354 -0.4170  0.4632 -0.4906
18726THY    HA358619   4.097   0.316   2.283  0.0349  0.6751 -0.6480
18726THY    CA458620   4.094   0.370   2.491 -0.0144 -0.2495  0.1424
18726THY    HA458621   4.084   0.268   2.527  1.2239 -1.4102 -0.4168
18726THY    CA558622   4.101   0.477   2.581  0.1494 -0.5928  0.1555
18726THY    CM158623   4.116   0.456   2.730  0.5241 -0.3067  0.2103
18726THY    HM158624   4.159   0.357   2.751  1.2120 -0.2289  0.5138
18726THY    HM258625   4.023   0.479   2.782  0.2019 -0.0807 -1.5132
18726THY    HM358626   4.196   0.517   2.773 -0.7603  3.4867 -0.5039
18726THY    CA658627   4.099   0.608   2.534  0.3920  0.0520 -0.2988
18726THY    HA658628   4.095   0.692   2.602  0.5296  0.4960 -0.6454
18727THY      O58629   7.160   4.909   2.230  0.1832 -0.2075  0.2076
18727THY     HO58630   7.223   4.983   2.241 -0.5573  0.9090  0.6928
18727THY    CA158631   7.196   4.809   2.316 -0.4350  0.0804  0.4141
18727THY    CA258632   7.115   4.696   2.339  0.5196  0.1930 -0.7893
18727THY    CP158633   6.987   4.680   2.258  0.3559  1.2260 -0.5416
18727THY    HP158634   6.963   4.778   2.213 -1.7272  0.6824 -1.2553
18727THY    CP258635   6.868   4.631   2.334  0.5542  0.1938  0.2669
18727THY    HP258636   6.852   4.693   2.423 -0.1612 -0.4323  1.0040
18727THY    HP358637   6.881   4.527   2.366  0.3171  0.0318  0.1860
18727THY    HP458638   6.773   4.630   2.280 -0.0921  1.2856 -0.8638
18727THY    CP358639   7.016   4.600   2.124 -0.4695 -0.3989  0.1115
18727THY    HP558640   7.109   4.633   2.077 -1.4047 -2.8912 -0.6096
18727THY    HP658641   6.930   4.600   2.056  0.2042 -1.2665  0.2046
18727THY    HP758642   7.035   4.496   2.151  1.0898 -0.1375  0.4474
18727THY    CA358643   7.150   4.607   2.444 -0.2827 -0.1389 -0.5263
18727THY    HA358644   7.079   4.533   2.482 -2.3467  2.1067  2.3854
18727THY    CA458645   7.271   4.625   2.515 -0.4820  0.1385  0.0460
18727THY    HA458646   7.303   4.554   2.591 -3.2386  0.9170 -0.4870
18727THY    CA558647   7.349   4.741   2.484  0.2089  0.2492  0.4728
18727THY    CM158648   7.484   4.753   2.545 -0.2805  0.3357 -0.1294
18727THY    HM158649   7.486   4.731   2.652  4.5230  0.0458 -2.5120
18727THY    HM258650   7.516   4.858   2.536 -2.5847  1.6069  0.7511
18727THY    HM358651   7.556   4.687   2.495  0.0365  1.1603 -0.4155
18727THY    CA658652   7.315   4.835   2.387  0.0037  0.3930  0.1005
18727THY    HA658653   7.368   4.928   2.369 -2.3824 -2.5574  1.0535
18728THY      O58654   3.343   4.078   3.789  0.1429 -0.3960 -0.3638
18728THY     HO58655   3.314   4.153   3.844 -0.1264 -1.4137  0.3093
18728THY    CA158656   3.321   4.121   3.664 -0.3046 -0.6995 -0.2333
18728THY    CA258657   3.351   4.048   3.550 -0.0732 -0.1725  0.2433
18728THY    CP158658   3.426   3.912   3.556  0.4987 -0.2951  0.1831
18728THY    HP158659   3.464   3.906   3.658 -0.5768  0.3047  2.3347
18728THY    CP258660   3.549   3.908   3.470 -0.1384  1.0344 -0.3681
18728THY    HP258661   3.605   3.816   3.493 -0.1546  1.1153 -0.3576
18728THY    HP358662   3.612   3.995   3.489 -0.5613  0.7777 -0.0013
18728THY    HP458663   3.520   3.915   3.364 -1.3584  1.4139  0.6138
18728THY    CP358664   3.333   3.793   3.535  0.5514  0.6987  0.7136
18728THY    HP558665   3.253   3.803   3.610 -1.8836 -1.4821 -0.8270
18728THY    HP658666   3.390   3.702   3.553 -0.9159  0.8437 -0.2163
18728THY    HP758667   3.289   3.786   3.435 -0.1966  1.1241 -1.2668
18728THY    CA358668   3.311   4.095   3.426  0.3712 -0.5009 -0.5119
18728THY    HA358669   3.321   4.037   3.335  2.1513 -1.5425  1.3399
18728THY    CA458670   3.228   4.201   3.420 -0.1129  0.6984  0.0185
18728THY    HA458671   3.186   4.227   3.324  1.3606  0.2234  0.7328
18728THY    CA558672   3.183   4.269   3.533  0.0245 -0.3054 -0.5069
18728THY    CM158673   3.083   4.374   3.525 -0.0906  0.6802  0.4551
18728THY    HM158674   3.131   4.467   3.557 -1.2173  1.2721  0.8547
18728THY    HM258675   3.007   4.346   3.600 -0.0558  0.0577 -1.4170
18728THY    HM358676   3.046   4.392   3.423  1.7911  0.2369  2.1772
18728THY    CA658677   3.235   4.230   3.655 -0.3266  0.5634 -0.1458
18728THY    HA658678   3.195   4.279   3.744  1.1946  1.9974 -1.3923
18729THY      O58679   5.133   3.735   6.982  0.0368  0.0243  0.0492
18729THY     HO58680   5.194   3.794   7.029 -0.0306 -0.3420  0.4177
18729THY    CA158681   5.032   3.819   6.954 -0.2918  0.3593  0.1453
18729THY    CA258682   4.923   3.780   6.873 -0.5049 -0.9041 -0.1415
18729THY    CP158683   4.917   3.628   6.830  0.2146  0.2853  0.2950
18729THY    HP158684   5.012   3.576   6.847  0.1500 -0.3086 -0.0187
18729THY    CP258685   4.884   3.624   6.681  0.1317 -0.1661 -0.4236
18729THY    HP258686   4.957   3.684   6.626 -0.5718 -0.3700  0.2653
18729THY    HP358687   4.790   3.674   6.655  1.5236 -1.2083  1.7913
18729THY    HP458688   4.898   3.521   6.645  0.9927  0.4842 -0.5422
18729THY    CP358689   4.805   3.548   6.908 -0.1687 -0.5829 -0.8544
18729THY    HP558690   4.790   3.445   6.875 -1.3312 -2.0914 -0.2346
18729THY    HP658691   4.710   3.600   6.892 -0.1871 -1.3206 -1.1041
18729THY    HP758692   4.830   3.555   7.015 -3.4047  0.2030  0.3948
18729THY    CA358693   4.817   3.861   6.845 -0.3600 -0.3390  0.9368
18729THY    HA358694   4.727   3.839   6.788 -1.9230  1.9388  0.9482
18729THY    CA458695   4.810   3.993   6.898 -0.0509  0.5554  0.3186
18729THY    HA458696   4.747   4.076   6.867  0.7566 -0.7633  0.4736
18729THY    CA558697   4.918   4.029   6.981 -0.2987 -0.1227 -0.5143
18729THY    CM158698   4.936   4.174   7.012  0.4748 -0.7289 -0.2567
18729THY    HM158699   5.004   4.192   7.096  0.9618 -1.3900  1.1398
18729THY    HM258700   4.847   4.231   7.037  2.4229 -0.1467  2.7484
18729THY    HM358701   4.971   4.234   6.927 -3.1483 -0.0398  3.2679
18729THY    CA658702   5.032   3.947   7.002 -0.4309 -0.5118 -0.1100
18729THY    HA658703   5.108   3.981   7.072 -0.5315  0.9112 -2.5176
18730THY      O58704   2.816   2.051   7.447 -0.2663 -0.0355 -0.1404
18730THY     HO58705   2.901   2.022   7.484  0.1133  0.0488  1.0132
18730THY    CA158706   2.820   2.161   7.366  0.5796 -0.3062  0.3234
18730THY    CA258707   2.711   2.197   7.287  0.5390  0.5864  1.4569
18730THY    CP158708   2.585   2.110   7.293 -0.0795 -0.0224  0.1235
18730THY    HP158709   2.581   2.049   7.383  2.3097 -1.2390 -2.0510
18730THY    CP258710   2.578   2.009   7.179  0.2683  0.1560 -0.0804
18730THY    HP258711   2.641   1.923   7.202 -0.7854  0.2999 -0.8254
18730THY    HP358712   2.614   2.059   7.088 -0.7982  1.0533  2.4594
18730THY    HP458713   2.477   1.971   7.162 -0.5681 -0.4632  2.2325
18730THY    CP358714   2.458   2.200   7.286  0.2154 -0.4143 -0.1963
18730THY    HP558715   2.464   2.272   7.203  0.4684 -0.5632 -0.3861
18730THY    HP658716   2.440   2.257   7.378 -2.5534 -1.1558  0.2578
18730THY    HP758717   2.372   2.133   7.277 -0.6465  2.3041  0.4289
18730THY    CA358718   2.730   2.308   7.202 -0.5111  0.5149  0.2231
18730THY    HA358719   2.658   2.353   7.134  0.5324  0.2369  1.5187
18730THY    CA458720   2.854   2.383   7.207 -1.2365 -0.0384  0.3269
18730THY    HA458721   2.858   2.477   7.151 -0.5331  0.0351  0.3397
18730THY    CA558722   2.955   2.341   7.287  0.0146 -0.3201  1.0003
18730THY    CM158723   3.079   2.417   7.290  0.0965 -0.7083 -0.1749
18730THY    HM158724   3.063   2.510   7.346  0.7373  1.2429 -1.1799
18730THY    HM258725   3.107   2.441   7.187  1.1931 -0.3605  0.1016
18730THY    HM358726   3.170   2.365   7.322  0.1110  0.7798  0.7111
18730THY    CA658727   2.939   2.234   7.374  0.0450  0.3576  0.6057
18730THY    HA658728   3.013   2.198   7.445  2.4299 -2.2064  0.1236
18731THY      O58729   5.541   3.321   6.152 -0.9380  0.0222 -0.3199
18731THY     HO58730   5.514   3.247   6.209 -3.4050 -0.9385 -0.2561
18731THY    CA158731   5.429   3.404   6.148 -0.3658  0.6608  0.2954
18731THY    CA258732   5.391   3.463   6.029  0.1353 -0.2000  0.5267
18731THY    CP158733   5.463   3.425   5.890 -0.4808  0.0347 -0.1510
18731THY    HP158734   5.557   3.372   5.907 -0.7360 -2.0130 -1.4100
18731THY    CP258735   5.500   3.557   5.812 -0.3455  0.3707  0.0917
18731THY    HP258736   5.407   3.590   5.765 -0.0009  0.7096  1.6326
18731THY    HP358737   5.570   3.532   5.732  0.0196  1.3752 -2.3642
18731THY    HP458738   5.548   3.635   5.873 -0.7718 -0.3537  0.9351
18731THY    CP358739   5.368   3.331   5.819  0.6209  0.1286 -0.6212
18731THY    HP558740   5.367   3.242   5.882  0.3002 -1.3553 -1.7041
18731THY    HP658741   5.409   3.292   5.725  1.4515  0.6276 -0.9870
18731THY    HP758742   5.270   3.379   5.812  1.0608 -1.1531  0.1332
18731THY    CA358743   5.279   3.552   6.031  0.8952 -0.4011  0.3253
18731THY    HA358744   5.260   3.609   5.940  0.6864 -1.2751 -1.0672
18731THY    CA458745   5.202   3.566   6.151  0.0080  0.3855  0.1136
18731THY    HA458746   5.109   3.622   6.149  0.2961 -3.4658  0.6832
18731THY    CA558747   5.238   3.493   6.261 -0.8523  0.3466 -0.1332
18731THY    CM158748   5.145   3.500   6.385  0.1798 -1.4730  0.3064
18731THY    HM158749   5.161   3.584   6.453  0.3174  1.5502 -1.9939
18731THY    HM258750   5.162   3.406   6.439  4.3424 -1.1854  1.0435
18731THY    HM358751   5.040   3.481   6.356 -0.4553  1.8992 -2.1194
18731THY    CA658752   5.351   3.419   6.259 -1.1445 -0.1235  0.2165
18731THY    HA658753   5.383   3.371   6.352 -0.3548  0.7432  2.3129
18732THY      O58754   8.508   4.529   5.701  0.5014 -0.0863 -0.6037
18732THY     HO58755   8.483   4.526   5.794 -1.0854 -0.5023 -0.9444
18732THY    CA158756   8.595   4.439   5.664  0.2246  0.5721 -0.7217
18732THY    CA258757   8.643   4.423   5.537  0.8080  0.2480  0.6948
18732THY    CP158758   8.601   4.515   5.418  0.6395 -0.7204  0.2817
18732THY    HP158759   8.536   4.597   5.450  1.1550  2.4269 -0.4244
18732THY    CP258760   8.529   4.440   5.300 -0.2732  0.1096 -0.1892
18732THY    HP258761   8.592   4.369   5.245  1.1310  0.5667  0.6497
18732THY    HP358762   8.496   4.511   5.223  0.8992 -0.2995 -0.0536
18732THY    HP458763   8.446   4.386   5.345  0.4061  1.0037 -0.5119
18732THY    CP358764   8.732   4.574   5.355  0.2660 -0.1846 -0.2594
18732THY    HP558765   8.791   4.630   5.429 -1.3513 -0.1471  1.4859
18732THY    HP658766   8.699   4.640   5.274  0.5251  0.8694  1.2129
18732THY    HP758767   8.783   4.488   5.310 -1.4788 -2.1653 -0.3180
18732THY    CA358768   8.700   4.296   5.506  0.4698 -0.2485 -0.2247
18732THY    HA358769   8.736   4.279   5.405 -1.3846 -1.0593  0.3707
18732THY    CA458770   8.733   4.201   5.604 -0.1244 -0.3013 -0.0855
18732THY    HA458771   8.794   4.113   5.585 -2.0261 -0.7572 -1.3441
18732THY    CA558772   8.694   4.228   5.737  0.3898 -0.5907 -0.0251
18732THY    CM158773   8.735   4.136   5.850 -0.1552  0.2704 -0.1451
18732THY    HM158774   8.662   4.064   5.888 -0.2565 -0.9202 -0.7024
18732THY    HM258775   8.767   4.196   5.936  0.0666 -0.1814  0.4063
18732THY    HM358776   8.821   4.079   5.814  0.2157 -1.6495  1.5132
18732THY    CA658777   8.620   4.344   5.764  0.7572 -0.1996  0.0828
18732THY    HA658778   8.587   4.346   5.867 -1.0735 -0.6019 -3.1834
18733THY      O58779   7.506   1.363   2.255  0.3863 -0.1850  0.0392
18733THY     HO58780   7.412   1.388   2.250  0.0706  1.1234 -0.7483
18733THY    CA158781   7.505   1.251   2.182  0.7149 -0.7280 -0.0426
18733THY    CA258782   7.606   1.224   2.088  0.2065  0.0517  0.0727
18733THY    CP158783   7.724   1.328   2.076  0.0260  0.1078  0.2165
18733THY    HP158784   7.725   1.401   2.158 -0.7592 -0.2608  0.6557
18733THY    CP258785   7.712   1.409   1.936 -0.6671  0.1111 -0.3493
18733THY    HP258786   7.734   1.347   1.848  2.6194 -1.9299  3.2785
18733THY    HP358787   7.779   1.496   1.935 -0.4164 -1.8106 -0.5113
18733THY    HP458788   7.611   1.448   1.925 -0.4102  0.7940  0.5490
18733THY    CP358789   7.869   1.265   2.095 -0.1965  0.4602 -0.3472
18733THY    HP558790   7.881   1.175   2.034  0.1533  0.7002 -0.4622
18733THY    HP658791   7.873   1.229   2.198 -1.7135  0.9866  0.8505
18733THY    HP758792   7.951   1.337   2.086 -0.0848 -1.9702 -0.6784
18733THY    CA358793   7.594   1.107   2.003  1.2859 -0.2784  0.0289
18733THY    HA358794   7.678   1.070   1.945  1.6434  0.6404 -0.6182
18733THY    CA458795   7.474   1.034   2.011  0.4672  0.8867  0.1620
18733THY    HA458796   7.446   0.941   1.962 -0.1446  0.8819  0.3467
18733THY    CA558797   7.377   1.068   2.102 -0.2230  0.1155  0.3663
18733THY    CM158798   7.254   0.987   2.098  0.1845 -0.2946 -0.1273
18733THY    HM158799   7.277   0.880   2.095 -2.2716 -0.5991 -0.7087
18733THY    HM258800   7.203   1.018   2.006  0.1181  0.0700  0.8928
18733THY    HM358801   7.201   1.007   2.192  3.1902  1.9456 -1.8750
18733THY    CA658802   7.388   1.184   2.187  0.3596 -0.2616  0.2798
18733THY    HA658803   7.312   1.215   2.258  0.8778  0.3965  0.0650
18734THY      O58804   7.114   8.242   6.722  0.0875  0.4030  0.4162
18734THY     HO58805   7.124   8.180   6.796  3.3341 -0.0920  0.1560
18734THY    CA158806   6.978   8.280   6.710  0.1029  0.8394  0.2307
18734THY    CA258807   6.929   8.360   6.603  0.0789 -0.1171  0.1566
18734THY    CP158808   7.017   8.391   6.481 -0.6109  0.3850  0.9673
18734THY    HP158809   7.115   8.411   6.525 -0.3636 -0.4370  1.6249
18734THY    CP258810   6.974   8.515   6.409  0.0712 -0.1549 -0.3379
18734THY    HP258811   6.967   8.590   6.489  0.4970 -0.3273 -0.1077
18734THY    HP358812   6.874   8.504   6.365 -0.9472  2.1946 -1.0179
18734THY    HP458813   7.050   8.554   6.340  0.3478  0.7851  0.8262
18734THY    CP358814   7.024   8.261   6.388 -0.1376  0.6497 -0.0471
18734THY    HP558815   7.076   8.187   6.450  0.2516  0.7455  0.3095
18734THY    HP658816   7.086   8.284   6.301  0.2321  0.6610 -0.9416
18734THY    HP758817   6.922   8.226   6.367  0.0826 -0.0893 -0.2649
18734THY    CA358818   6.786   8.385   6.598 -0.9901 -0.5680 -0.0039
18734THY    HA358819   6.736   8.436   6.517  1.2338 -1.8462  0.2812
18734THY    CA458820   6.707   8.339   6.700 -0.4219 -0.5041  0.8519
18734THY    HA458821   6.599   8.347   6.704 -0.4580 -0.6175  0.4657
18734THY    CA558822   6.765   8.260   6.801  0.4896 -0.6804  0.0817
18734THY    CM158823   6.671   8.208   6.908 -0.0249  0.0361  0.6979
18734THY    HM158824   6.681   8.101   6.928 -1.3687  0.6569  0.6651
18734THY    HM258825   6.571   8.229   6.869  1.2788 -2.9394  1.9854
18734THY    HM358826   6.686   8.259   7.004 -0.2464  1.9578 -2.5693
18734THY    CA658827   6.899   8.230   6.804 -0.2349  0.4910 -0.0954
18734THY    HA658828   6.936   8.163   6.881 -3.8759  2.4260 -0.1310
18735THY      O58829   8.277   0.701   6.035  0.3615 -0.2999 -0.1103
18735THY     HO58830   8.251   0.635   5.968  0.8804  0.0238 -0.6515
18735THY    CA158831   8.307   0.632   6.149 -0.5961  0.7631  0.4047
18735THY    CA258832   8.404   0.672   6.237 -0.2273  0.4619 -0.5695
18735THY    CP158833   8.474   0.809   6.211 -0.5281  0.2411  0.2594
18735THY    HP158834   8.414   0.879   6.152  1.2934  2.1837  3.8009
18735THY    CP258835   8.603   0.799   6.121  0.7569  0.1995  0.3763
18735THY    HP258836   8.639   0.901   6.105 -1.4424 -1.1357  1.0228
18735THY    HP358837   8.575   0.760   6.023 -0.3388  0.7618 -0.3076
18735THY    HP458838   8.679   0.737   6.169  0.5210  0.8227  0.5604
18735THY    CP358839   8.508   0.881   6.342 -0.8948 -0.0545  0.5481
18735THY    HP558840   8.602   0.843   6.382 -0.1739 -0.9254  1.3820
18735THY    HP658841   8.431   0.858   6.417  1.2148  1.7201 -1.2777
18735THY    HP758842   8.517   0.990   6.331 -0.9294  0.1070  0.5685
18735THY    CA358843   8.437   0.589   6.347 -0.1224  0.1195 -0.8616
18735THY    HA358844   8.523   0.613   6.409 -0.3633 -0.1441  0.7560
18735THY    CA458845   8.372   0.469   6.361 -0.0762 -0.4183 -0.8098
18735THY    HA458846   8.396   0.409   6.448  1.2120  0.5564  1.0265
18735THY    CA558847   8.268   0.432   6.273 -0.2940 -0.1673 -0.6205
18735THY    CM158848   8.186   0.311   6.292 -0.0049  0.3769 -0.1639
18735THY    HM158849   8.080   0.339   6.306  0.4078  0.2110  1.5710
18735THY    HM258850   8.234   0.246   6.366  1.9079  1.9330  2.8144
18735THY    HM358851   8.185   0.253   6.199 -0.7487 -0.0182  0.4587
18735THY    CA658852   8.249   0.509   6.164 -0.2138 -0.7009  0.1746
18735THY    HA658853   8.165   0.482   6.101 -0.3884  0.0775 -1.1733
18736THY      O58854   1.755   8.074   7.193 -0.0291 -0.3194  0.7043
18736THY     HO58855   1.689   8.145   7.198 -2.0758 -1.7291 -0.9545
18736THY    CA158856   1.807   8.083   7.318 -0.7475  0.3389  0.7160
18736THY    CA258857   1.948   8.071   7.337 -0.3060 -0.7549  0.4311
18736THY    CP158858   2.046   8.005   7.235  0.0973 -0.1252 -0.4030
18736THY    HP158859   1.997   7.966   7.145  0.7674 -0.7884  0.2663
18736THY    CP258860   2.123   7.889   7.294  0.2792 -0.2748  0.4698
18736THY    HP258861   2.167   7.844   7.204 -0.1537 -1.2145  1.8577
18736THY    HP358862   2.053   7.814   7.333  1.4199 -0.0156 -0.4924
18736THY    HP458863   2.203   7.908   7.366 -1.4312  1.7665  0.2545
18736THY    CP358864   2.148   8.114   7.190 -0.1935  1.3868  1.3010
18736THY    HP558865   2.087   8.196   7.149  1.3812  1.5450  2.6191
18736THY    HP658866   2.222   8.080   7.116  0.9363  0.8631  4.5125
18736THY    HP758867   2.211   8.154   7.271  1.0061  1.6343 -0.9774
18736THY    CA358868   1.997   8.117   7.456  0.2309  0.1585 -0.6248
18736THY    HA358869   2.102   8.108   7.480  0.0407  0.8737 -0.9742
18736THY    CA458870   1.910   8.164   7.558 -0.7333  0.4271 -0.3946
18736THY    HA458871   1.955   8.188   7.654  0.8559 -0.6478  1.1744
18736THY    CA558872   1.777   8.186   7.537  0.7395  0.0490  0.4754
18736THY    CM158873   1.676   8.239   7.635 -0.1605  0.1216 -0.7484
18736THY    HM158874   1.707   8.227   7.739  1.1089 -0.0075  1.0637
18736THY    HM258875   1.572   8.212   7.613  0.5353 -1.8296 -2.1423
18736THY    HM358876   1.691   8.345   7.613  0.8995 -0.6863 -1.0480
18736THY    CA658877   1.725   8.147   7.412 -0.6141 -0.4662 -0.4174
18736THY    HA658878   1.621   8.168   7.390 -0.8074  0.6256 -0.1851
18737THY      O58879   5.789   1.096   4.487 -0.2238  0.2187  0.0530
18737THY     HO58880   5.779   1.104   4.391 -0.4759 -0.0905 -2.9343
18737THY    CA158881   5.788   1.223   4.533 -0.1798 -0.1095 -0.8036
18737THY    CA258882   5.729   1.247   4.654 -0.0754 -0.1262 -0.7130
18737THY    CP158883   5.700   1.132   4.743 -0.5560 -0.1439  0.1992
18737THY    HP158884   5.653   1.052   4.684 -4.3266  0.1739  1.9641
18737THY    CP258885   5.592   1.161   4.841  0.4909  0.7922  0.2268
18737THY    HP258886   5.497   1.192   4.795  1.0177 -1.1514 -0.8132
18737THY    HP358887   5.622   1.245   4.905  0.0395  0.5346  0.5892
18737THY    HP458888   5.567   1.076   4.906  0.4495  1.6660  0.8955
18737THY    CP358889   5.822   1.069   4.814 -0.5199 -0.2485  0.0232
18737THY    HP558890   5.801   0.993   4.890  1.1806  0.7962  0.5317
18737THY    HP658891   5.887   1.141   4.866  1.2457 -1.4674 -0.6182
18737THY    HP758892   5.889   1.024   4.741  0.3612  2.1701 -2.8903
18737THY    CA358893   5.713   1.385   4.690  0.3880  0.4795  0.6797
18737THY    HA358894   5.674   1.412   4.788  1.0918  0.9250  0.1191
18737THY    CA458895   5.768   1.486   4.612 -0.0079 -0.1742 -0.3440
18737THY    HA458896   5.739   1.589   4.630 -1.5662 -0.5034 -0.6981
18737THY    CA558897   5.828   1.453   4.490  0.2186  0.1461 -0.0092
18737THY    CM158898   5.865   1.567   4.395  0.3793  0.3375 -0.0906
18737THY    HM158899   5.936   1.637   4.440  0.6609 -0.6491  0.2603
18737THY    HM258900   5.774   1.620   4.364 -1.2884  2.3481 -1.5630
18737THY    HM358901   5.919   1.539   4.304 -0.5296 -0.4361  0.6180
18737THY    CA658902   5.838   1.323   4.454 -0.3794 -0.0034 -0.5743
18737THY    HA658903   5.876   1.304   4.354 -0.6899 -0.8813  2.7201
18738THY      O58904   0.459   2.127   5.959  0.5148 -0.3721 -0.7910
18738THY     HO58905   0.459   2.056   6.027  0.5166  2.8028  2.0116
18738THY    CA158906   0.551   2.210   6.002  0.1884 -0.3720 -0.3466
18738THY    CA258907   0.572   2.340   5.948  0.3602 -0.2363  0.4903
18738THY    CP158908   0.481   2.392   5.832  0.0371 -0.2967 -0.2208
18738THY    HP158909   0.393   2.330   5.818  0.3971  0.0831 -0.8253
18738THY    CP258910   0.552   2.362   5.698  0.0502 -0.2648  0.4418
18738THY    HP258911   0.612   2.272   5.716 -2.2729  2.2898 -0.7139
18738THY    HP358912   0.615   2.443   5.662  1.5557 -0.8908 -0.9423
18738THY    HP458913   0.472   2.351   5.624 -0.1536 -0.0699  0.6150
18738THY    CP358914   0.433   2.538   5.838 -0.3360 -0.5025 -0.0851
18738THY    HP558915   0.365   2.538   5.924  1.0129  0.6164  1.0036
18738THY    HP658916   0.373   2.576   5.755 -0.1835 -0.6067 -0.0695
18738THY    HP758917   0.517   2.608   5.851 -0.3912  1.9897 -0.3850
18738THY    CA358918   0.676   2.422   5.992  0.5340 -0.1331 -0.2795
18738THY    HA358919   0.694   2.522   5.952 -2.6014  2.8806  1.7311
18738THY    CA458920   0.762   2.373   6.101  0.5560  0.0740  0.6008
18738THY    HA458921   0.848   2.432   6.129  0.1993 -1.9042  2.1803
18738THY    CA558922   0.734   2.250   6.155  0.5425  0.0030 -0.2206
18738THY    CM158923   0.813   2.193   6.268  0.3545 -0.5567  0.2729
18738THY    HM158924   0.919   2.179   6.246  0.2890  0.7904 -3.5142
18738THY    HM258925   0.781   2.090   6.288  1.7513 -1.7968 -0.4346
18738THY    HM358926   0.805   2.251   6.361 -2.2664  1.6390 -3.2489
18738THY    CA658927   0.625   2.170   6.109 -0.0802 -0.8741 -0.0303
18738THY    HA658928   0.595   2.086   6.171  0.9000  1.7607  1.4298
18739THY      O58929   4.312   7.119   5.581 -0.1171 -0.2729  0.0198
18739THY     HO58930   4.272   7.207   5.571  3.0168 -1.2839  1.5004
18739THY    CA158931   4.221   7.069   5.679  0.0568 -0.6138  0.0837
18739THY    CA258932   4.277   6.985   5.780  0.1200  0.2644 -0.2234
18739THY    CP158933   4.430   6.949   5.790  0.1783  0.1250  0.5499
18739THY    HP158934   4.478   6.961   5.692 -0.7498 -0.5153 -0.7646
18739THY    CP258935   4.458   6.808   5.831  0.1097 -0.8410  0.3418
18739THY    HP258936   4.551   6.778   5.780  0.4698  0.3827 -0.7051
18739THY    HP358937   4.380   6.737   5.801 -0.0649  1.2506 -0.3943
18739THY    HP458938   4.479   6.785   5.936  0.9069 -0.7537  1.4231
18739THY    CP358939   4.488   7.055   5.878 -0.0490 -0.1368 -0.2823
18739THY    HP558940   4.483   7.147   5.817 -2.1148  0.8209  0.3077
18739THY    HP658941   4.586   7.019   5.908 -1.1599  0.6652 -2.8898
18739THY    HP758942   4.422   7.073   5.963  0.0345  0.2927 -1.9211
18739THY    CA358943   4.189   6.952   5.884  0.0740 -0.0198  0.0710
18739THY    HA358944   4.223   6.897   5.971  1.8938  0.9834  2.5806
18739THY    CA458945   4.052   6.994   5.883 -0.5971  0.0624  0.0120
18739THY    HA458946   3.986   6.954   5.960 -0.8307  0.1337  0.5355
18739THY    CA558947   3.999   7.063   5.773 -0.0848  0.2432 -0.4590
18739THY    CM158948   3.850   7.095   5.769 -0.3041  0.4508  0.2491
18739THY    HM158949   3.817   7.109   5.665 -1.2697  0.5055 -1.3999
18739THY    HM258950   3.825   7.187   5.823 -2.8422  0.9995 -0.6821
18739THY    HM358951   3.805   7.010   5.822  0.4402  0.3164 -0.2464
18739THY    CA658952   4.087   7.111   5.678  0.0922  0.0621 -0.8879
18739THY    HA658953   4.046   7.156   5.587  0.8912  0.8769  1.7065
18740THY      O58954   4.600   7.756   8.161 -1.0882 -1.0661 -0.4402
18740THY     HO58955   4.576   7.850   8.166  0.9365 -0.4832  0.1099
18740THY    CA158956   4.591   7.724   8.031  0.4074  0.5153  0.2068
18740THY    CA258957   4.687   7.639   7.975 -0.4068  1.1264 -0.6208
18740THY    CP158958   4.801   7.584   8.053  0.2541  0.2818  0.2370
18740THY    HP158959   4.801   7.615   8.158  2.3578  1.1486 -2.3684
18740THY    CP258960   4.937   7.628   7.999 -0.3967  0.8219  0.7976
18740THY    HP258961   4.945   7.736   7.984 -1.2741 -0.5096  0.7000
18740THY    HP358962   4.950   7.590   7.896  1.4037  0.9180  1.0512
18740THY    HP458963   5.023   7.598   8.059 -0.8407  0.6632 -0.8831
18740THY    CP358964   4.796   7.435   8.063 -0.0319  0.5015  0.5025
18740THY    HP558965   4.703   7.406   8.112  0.3938 -0.0684 -2.0264
18740THY    HP658966   4.876   7.396   8.128  1.1494 -0.6964  0.8382
18740THY    HP758967   4.804   7.384   7.966  2.3017  0.4150  0.9185
18740THY    CA358968   4.676   7.624   7.836 -0.0630  0.7706  1.1338
18740THY    HA358969   4.742   7.563   7.776 -2.7138 -0.5957 -0.5811
18740THY    CA458970   4.564   7.670   7.764  0.1158 -0.1412 -0.3989
18740THY    HA458971   4.555   7.656   7.657 -1.0717  0.2082 -2.9922
18740THY    CA558972   4.467   7.742   7.825 -0.0385 -0.2630 -0.9671
18740THY    CM158973   4.349   7.809   7.760 -0.5785 -0.1112  0.7326
18740THY    HM158974   4.368   7.917   7.761  3.7960 -0.9680  0.1714
18740THY    HM258975   4.255   7.793   7.813 -0.4932 -0.4710 -1.2586
18740THY    HM358976   4.345   7.773   7.656 -1.1849  0.9379 -2.6233
18740THY    CA658977   4.483   7.776   7.962  0.5987 -0.2571 -0.0993
18740THY    HA658978   4.405   7.837   8.007 -1.2250 -1.5113 -1.3709
18741THY      O58979   1.055   8.650   7.716 -0.4097  0.1648 -0.0098
18741THY     HO58980   0.981   8.614   7.767  1.6010  3.2798 -0.0742
18741THY    CA158981   1.077   8.576   7.602 -1.4037  0.8223 -0.4092
18741THY    CA258982   1.208   8.561   7.541  0.3711  0.1619  0.0981
18741THY    CP158983   1.329   8.635   7.604  0.1323 -0.1527  0.3967
18741THY    HP158984   1.305   8.727   7.658  2.8088 -0.1259  1.1640
18741THY    CP258985   1.426   8.682   7.494  0.6607 -0.4740  0.4992
18741THY    HP258986   1.476   8.598   7.445  0.5207  0.1952  0.0176
18741THY    HP358987   1.501   8.743   7.545  0.7996  1.7239 -1.3704
18741THY    HP458988   1.377   8.740   7.415 -1.9488  0.2298 -0.5628
18741THY    CP358989   1.398   8.548   7.704  0.7272  0.1877  0.5234
18741THY    HP558990   1.330   8.506   7.779  2.4858  2.9446  2.3287
18741THY    HP658991   1.476   8.608   7.752  1.7694 -1.1346  0.2808
18741THY    HP758992   1.446   8.461   7.657  1.1057  1.2783  0.1284
18741THY    CA358993   1.218   8.471   7.431  0.6267 -0.3746  1.0949
18741THY    HA358994   1.313   8.450   7.383  1.5438  1.5630  0.5952
18741THY    CA458995   1.106   8.414   7.373 -0.0253  0.3806 -0.5094
18741THY    HA458996   1.118   8.360   7.280  0.7953  0.5509 -0.6365
18741THY    CA558997   0.983   8.445   7.429  0.8677  0.6975 -0.1113
18741THY    CM158998   0.854   8.410   7.349 -0.6507  0.2165  0.5161
18741THY    HM158999   0.789   8.498   7.342 -1.7422  0.1118 -0.2772
18741THY    HM259000   0.795   8.335   7.403  1.7308 -0.8450 -2.2900
18741THY    HM359001   0.876   8.360   7.254 -2.6039 -0.3332  0.5820
18741THY    CA659002   0.968   8.523   7.546 -0.2147 -0.4442  0.3278
18741THY    HA659003   0.868   8.545   7.582  0.4756  3.2629 -1.7548
18742THY      O59004   7.529   8.967   5.873  0.1471 -0.2768  0.4976
18742THY     HO59005   7.547   8.893   5.813 -0.5056 -0.2094  0.2762
18742THY    CA159006   7.438   9.051   5.826  0.6732 -0.2666  0.0242
18742THY    CA259007   7.395   9.156   5.911 -0.3869 -0.4161  0.0528
18742THY    CP159008   7.476   9.185   6.043  0.0775 -0.5644  0.0395
18742THY    HP159009   7.581   9.154   6.034  0.0471  2.1167 -1.1273
18742THY    CP259010   7.417   9.114   6.166  0.1191 -0.4714  0.0647
18742THY    HP259011   7.430   9.007   6.146 -1.6348 -1.3052 -0.0158
18742THY    HP359012   7.309   9.130   6.176  0.2707  0.9531  0.3446
18742THY    HP459013   7.464   9.146   6.260 -1.3217  0.5411 -0.6895
18742THY    CP359014   7.475   9.329   6.080  0.1559 -0.4075  0.0800
18742THY    HP559015   7.565   9.354   6.138  1.0620 -2.8023  2.9109
18742THY    HP659016   7.378   9.357   6.122 -0.2185 -0.2994 -1.3291
18742THY    HP759017   7.488   9.393   5.992 -1.4323 -0.6678  0.0786
18742THY    CA359018   7.294   9.234   5.862  1.0531 -0.2003 -0.5875
18742THY    HA359019   7.262   9.319   5.921 -0.4189 -0.9441 -0.5784
18742THY    CA459020   7.223   9.198   5.749  0.6436 -0.1327 -0.4333
18742THY    HA459021   7.134   9.258   5.730 -0.0201  2.7376 -0.3820
18742THY    CA559022   7.265   9.091   5.673  0.4991  0.0803 -0.2870
18742THY    CM159023   7.187   9.064   5.543 -0.0896 -0.1861  0.1731
18742THY    HM159024   7.186   9.157   5.485 -2.2787  0.9008  0.9041
18742THY    HM259025   7.083   9.028   5.553 -0.4317 -1.1308  0.8672
18742THY    HM359026   7.237   8.991   5.478 -0.3355 -0.4296  0.2189
18742THY    CA659027   7.382   9.023   5.702  0.3695 -0.7706  0.9313
18742THY    HA659028   7.415   8.930   5.657  0.3561  3.9817 -1.6793
18743THY      O59029   1.614   1.438   1.868 -0.4407  0.3619  0.4295
18743THY     HO59030   1.571   1.483   1.794  1.4371  0.0314  1.8140
18743THY    CA159031   1.530   1.342   1.911  0.1165 -0.5583 -0.4336
18743THY    CA259032   1.558   1.268   2.024 -0.6090 -1.2704  0.3366
18743THY    CP159033   1.683   1.298   2.109  0.2293  0.4326 -0.4617
18743THY    HP159034   1.726   1.395   2.079  1.3205  0.2565 -0.9914
18743THY    CP259035   1.790   1.190   2.088  1.0806  0.6384 -0.5179
18743THY    HP259036   1.746   1.097   2.123  1.8891  0.4889 -0.9684
18743THY    HP359037   1.883   1.221   2.139 -1.1683  3.0652  2.9881
18743THY    HP459038   1.816   1.183   1.982 -0.4185  0.0838  1.4822
18743THY    CP359039   1.656   1.312   2.254  0.3328  0.4161 -0.3098
18743THY    HP559040   1.639   1.214   2.300  2.0224 -2.0432 -1.8751
18743THY    HP659041   1.566   1.371   2.270  0.4295 -1.2275  0.3200
18743THY    HP759042   1.743   1.360   2.301 -1.8409  3.9141  0.6071
18743THY    CA359043   1.481   1.152   2.044 -0.1912 -0.4674 -0.0820
18743THY    HA359044   1.505   1.093   2.132 -2.4996  1.8409  2.1124
18743THY    CA459045   1.364   1.131   1.966  0.1973  0.1860 -0.2212
18743THY    HA459046   1.305   1.042   1.989  1.7892  0.1673 -1.3289
18743THY    CA559047   1.328   1.220   1.859 -0.7248  0.0501  0.1366
18743THY    CM159048   1.203   1.215   1.780  0.5718 -0.7341 -0.1626
18743THY    HM159049   1.117   1.264   1.828 -2.0100 -2.5212 -2.5942
18743THY    HM259050   1.167   1.111   1.770 -1.2300 -1.4341  0.4895
18743THY    HM359051   1.214   1.246   1.675 -2.3947 -0.4871  2.1580
18743THY    CA659052   1.426   1.318   1.831  0.4306  0.6498  0.6951
18743THY    HA659053   1.397   1.383   1.749  0.0558 -0.4637 -0.8375
18744THY      O59054   3.099   1.909   4.727 -0.0385 -0.1437  0.6230
18744THY     HO59055   3.143   1.826   4.705 -0.2222 -2.3527  1.0673
18744THY    CA159056   3.142   1.952   4.849  0.0274  0.7177 -0.2919
18744THY    CA259057   3.195   2.079   4.859  0.2052  0.1043  0.5328
18744THY    CP159058   3.212   2.165   4.739 -0.0458 -0.3117 -0.2540
18744THY    HP159059   3.235   2.099   4.654 -0.2934  0.1385 -0.9233
18744THY    CP259060   3.325   2.270   4.744 -0.0163  0.3754  0.9512
18744THY    HP259061   3.339   2.287   4.637 -1.0334 -0.3588 -2.1167
18744THY    HP359062   3.412   2.222   4.791 -1.0812  1.2234 -0.2387
18744THY    HP459063   3.300   2.362   4.799  0.1466  2.3140 -0.1042
18744THY    CP359064   3.090   2.243   4.704 -0.3626 -0.8982  0.3146
18744THY    HP559065   3.109   2.307   4.617  2.7248  0.8794  2.0637
18744THY    HP659066   3.071   2.313   4.786 -0.7663 -0.2610 -0.5264
18744THY    HP759067   3.001   2.179   4.702 -0.5024  1.2124  0.3968
18744THY    CA359068   3.205   2.128   4.993 -0.2954 -0.9349 -0.2682
18744THY    HA359069   3.231   2.231   5.014 -0.4693 -0.9374 -0.2224
18744THY    CA459070   3.185   2.044   5.102  0.5643  0.2713 -0.0982
18744THY    HA459071   3.186   2.076   5.206 -1.7531  1.1236 -2.4687
18744THY    CA559072   3.147   1.911   5.079  0.5802 -0.6065  0.6787
18744THY    CM159073   3.126   1.815   5.195 -0.6095 -0.4471  1.1040
18744THY    HM159074   3.208   1.820   5.268 -1.1571  0.1004  2.9239
18744THY    HM259075   3.095   1.711   5.177 -2.1572  0.6373  1.3459
18744THY    HM359076   3.047   1.854   5.260 -0.5979 -0.4395  1.1142
18744THY    CA659077   3.127   1.867   4.952 -0.0876  0.6097 -0.6576
18744THY    HA659078   3.091   1.769   4.922  2.0696 -1.7800 -0.8352
18745THY      O59079   8.033   4.861   6.331 -0.0832  0.2843  0.1711
18745THY     HO59080   8.087   4.833   6.255  2.1986  1.2906  1.5532
18745THY    CA159081   8.136   4.871   6.419  0.0366  0.3835 -0.1826
18745THY    CA259082   8.134   4.927   6.553 -0.3641 -0.4544  0.2619
18745THY    CP159083   8.005   4.993   6.605 -0.0219  0.0479  0.2591
18745THY    HP159084   7.940   5.017   6.520 -1.8529  0.9169 -1.3645
18745THY    CP259085   8.033   5.130   6.655  0.4217  0.4491 -0.0258
18745THY    HP259086   7.937   5.167   6.691  0.9130  2.8816 -0.8943
18745THY    HP359087   8.072   5.197   6.577  1.1223  0.8163  0.0105
18745THY    HP459088   8.106   5.132   6.737  1.3852 -0.3637  2.7441
18745THY    CP359089   7.932   4.906   6.713  0.3704 -0.6388  0.1276
18745THY    HP559090   7.848   4.954   6.764 -0.9323 -3.2351  0.8072
18745THY    HP659091   7.995   4.877   6.798 -1.1954  0.7856  0.7318
18745THY    HP759092   7.891   4.813   6.673  0.3953  0.3647 -0.3170
18745THY    CA359093   8.250   4.921   6.628 -0.0158 -0.8736  0.2438
18745THY    HA359094   8.248   4.973   6.723 -2.5887 -0.9817  0.4464
18745THY    CA459095   8.361   4.842   6.586  0.0080 -0.0082 -0.2585
18745THY    HA459096   8.450   4.832   6.648  0.2569 -0.0947  1.1611
18745THY    CA559097   8.365   4.799   6.455 -0.4479  0.4284  0.7574
18745THY    CM159098   8.492   4.723   6.403 -0.6328  0.1182  0.2549
18745THY    HM159099   8.570   4.785   6.449 -1.4883 -0.0455  1.4744
18745THY    HM259100   8.518   4.705   6.298 -0.9761  0.3596 -1.9155
18745THY    HM359101   8.516   4.627   6.450 -0.2998  0.2075  0.3804
18745THY    CA659102   8.252   4.812   6.372  0.4183  0.6152 -1.0130
18745THY    HA659103   8.254   4.763   6.275 -1.7265  0.3339 -0.6690
18746THY      O59104   3.010   0.889   5.688 -0.4981  0.2703  0.5632
18746THY     HO59105   2.942   0.859   5.751  0.0894  1.1349  0.9926
18746THY    CA159106   3.061   1.014   5.727  0.0423  0.1451 -0.1046
18746THY    CA259107   3.171   1.075   5.660  0.1346  0.5735  1.2334
18746THY    CP159108   3.214   0.996   5.530 -0.5078  0.3111 -0.2004
18746THY    HP159109   3.131   0.940   5.484 -0.5552  0.7865 -0.5272
18746THY    CP259110   3.328   0.892   5.567  0.1511 -0.5982  0.4128
18746THY    HP259111   3.416   0.938   5.614  0.0579  0.9332 -0.8876
18746THY    HP359112   3.353   0.821   5.487 -0.7655 -1.1316  0.6669
18746THY    HP459113   3.275   0.826   5.637 -0.8381 -1.2803  0.4656
18746THY    CP359114   3.264   1.101   5.421  0.0721 -0.5732 -0.7844
18746THY    HP559115   3.201   1.191   5.429 -1.1278 -0.7211 -1.5841
18746THY    HP659116   3.248   1.061   5.320 -2.3059 -1.8255  2.8092
18746THY    HP759117   3.368   1.130   5.439 -0.3746 -1.2794  1.4605
18746THY    CA359118   3.233   1.182   5.722 -0.0485  0.0928 -0.4606
18746THY    HA359119   3.319   1.223   5.670 -1.1117 -0.5096  1.0868
18746THY    CA459120   3.184   1.233   5.841  0.0981  0.7700  0.1528
18746THY    HA459121   3.231   1.319   5.887  1.2776  2.2872 -1.2297
18746THY    CA559122   3.067   1.183   5.900 -0.6510  0.1990 -0.0542
18746THY    CM159123   3.018   1.250   6.017 -0.3952  0.0290  0.8023
18746THY    HM159124   3.088   1.230   6.100  0.8509 -1.3320 -0.7460
18746THY    HM259125   2.922   1.205   6.045  0.0393  0.2325 -0.0155
18746THY    HM359126   3.010   1.358   5.999 -2.7331  0.0429  0.6876
18746THY    CA659127   3.005   1.073   5.844 -0.1755  0.0741  0.2472
18746THY    HA659128   2.921   1.030   5.897 -1.1905 -2.3258 -0.8961
18747THY      O59129   1.046   5.443   3.444  0.5633  0.7088 -0.1647
18747THY     HO59130   1.143   5.445   3.451  0.6958 -0.3891 -1.4510
18747THY    CA159131   0.995   5.506   3.548  0.1261 -0.0516 -0.3696
18747THY    CA259132   0.868   5.566   3.538  0.3350 -0.3795  0.1196
18747THY    CP159133   0.786   5.567   3.401  0.2387 -0.6035 -0.4799
18747THY    HP159134   0.832   5.491   3.335 -0.6418  0.9473 -2.4501
18747THY    CP259135   0.804   5.707   3.333 -0.7158 -0.2689 -0.5036
18747THY    HP259136   0.717   5.750   3.282  0.4120 -1.2019  0.7858
18747THY    HP359137   0.868   5.692   3.245 -1.3372 -1.2717  2.0799
18747THY    HP459138   0.862   5.773   3.398 -0.9820  0.9427 -1.4235
18747THY    CP359139   0.638   5.529   3.407  0.3552  0.3260  0.3961
18747THY    HP559140   0.630   5.435   3.462  0.8046 -0.0772  0.1185
18747THY    HP659141   0.597   5.519   3.305 -0.5913  0.4404  2.4999
18747THY    HP759142   0.582   5.604   3.463 -1.2369 -1.5651  0.7102
18747THY    CA359143   0.816   5.623   3.657  0.2671 -0.2608 -0.4461
18747THY    HA359144   0.715   5.661   3.656  0.9217 -1.7512  1.3718
18747THY    CA459145   0.882   5.611   3.781  0.2325  0.8048 -0.5469
18747THY    HA459146   0.848   5.664   3.870  0.1798 -0.2728  1.3432
18747THY    CA559147   1.006   5.548   3.787  0.0020 -0.1292 -0.4258
18747THY    CM159148   1.088   5.536   3.918  1.0199 -0.6889  0.1915
18747THY    HM159149   1.195   5.551   3.899  1.5397 -1.6158 -3.6710
18747THY    HM259150   1.075   5.436   3.960 -0.1087 -0.6040  0.3628
18747THY    HM359151   1.062   5.618   3.985 -0.5132 -2.0788  0.8964
18747THY    CA659152   1.064   5.506   3.665 -0.5929 -0.0668 -0.3053
18747THY    HA659153   1.163   5.460   3.670 -0.1307  0.4338  0.7232
18748THY      O59154   8.366   4.976   3.908 -0.1341  0.8262  0.8516
18748THY     HO59155   8.365   5.067   3.941  0.6624  2.3931  0.3340
18748THY    CA159156   8.337   4.996   3.776 -0.4864  0.7711 -0.2550
18748THY    CA259157   8.365   4.902   3.673 -0.0029  0.2164 -0.2657
18748THY    CP159158   8.457   4.776   3.703 -0.2972 -0.2519  0.2710
18748THY    HP159159   8.457   4.740   3.806  4.0636  0.0351  0.5514
18748THY    CP259160   8.603   4.819   3.676  0.4389 -0.2774 -0.0738
18748THY    HP259161   8.641   4.867   3.767 -0.1101  0.5525 -1.1755
18748THY    HP359162   8.607   4.902   3.604  2.2355 -0.1453 -0.0063
18748THY    HP459163   8.666   4.735   3.647  2.0459  1.2956  0.5157
18748THY    CP359164   8.413   4.655   3.618  0.1260 -0.3314  0.0518
18748THY    HP559165   8.306   4.644   3.596  0.4278 -1.9615  0.1269
18748THY    HP659166   8.452   4.556   3.641 -0.3368 -1.7002 -0.4632
18748THY    HP759167   8.448   4.673   3.516  2.0380  0.1950 -0.4725
18748THY    CA359168   8.312   4.932   3.550 -0.0618 -0.3990  0.5545
18748THY    HA359169   8.329   4.858   3.472  0.6991  0.3755 -0.1105
18748THY    CA459170   8.235   5.049   3.527  0.6290 -0.5903  0.5663
18748THY    HA459171   8.197   5.054   3.426  1.7852 -1.1401 -1.0626
18748THY    CA559172   8.206   5.137   3.625 -0.1848  0.0989 -0.0240
18748THY    CM159173   8.119   5.254   3.602 -0.8814 -0.2024 -0.1038
18748THY    HM159174   8.072   5.235   3.504  0.1299 -0.7655  0.2183
18748THY    HM259175   8.178   5.346   3.609 -3.8134  1.2336  1.8501
18748THY    HM359176   8.040   5.256   3.677  0.5244  1.3360 -0.6315
18748THY    CA659177   8.260   5.116   3.753  0.5465  0.3664 -0.5180
18748THY    HA659178   8.227   5.182   3.832 -0.8883  0.9272 -1.8403
18749THY      O59179   9.002   8.316   2.507 -0.1930 -0.1850 -0.7118
18749THY     HO59180   8.950   8.371   2.445 -0.6999 -0.5977 -1.6379
18749THY    CA159181   8.934   8.203   2.546 -0.4430  0.2726 -0.4765
18749THY    CA259182   8.989   8.111   2.639 -0.4236  0.1765 -0.5680
18749THY    CP159183   9.130   8.118   2.682 -0.1926 -0.3220 -0.0472
18749THY    HP159184   9.173   8.212   2.647  2.4348  0.2486 -0.9532
18749THY    CP259185   9.211   8.010   2.614  0.0424 -0.1312  0.8028
18749THY    HP259186   9.202   8.006   2.505 -1.9830 -0.0612  1.9702
18749THY    HP359187   9.181   7.912   2.651 -0.1983  0.3449  1.0510
18749THY    HP459188   9.316   8.033   2.635  0.2350 -0.6910  0.4645
18749THY    CP359189   9.137   8.120   2.840 -0.7691 -0.1004  0.0243
18749THY    HP559190   9.240   8.139   2.872 -0.5346 -0.3249 -0.8161
18749THY    HP659191   9.090   8.030   2.882 -0.4199 -0.6870 -0.4440
18749THY    HP759192   9.072   8.202   2.871  0.2086  1.3561  0.2880
18749THY    CA359193   8.907   8.009   2.684 -0.7830  0.6698  0.4139
18749THY    HA359194   8.936   7.941   2.763 -0.5529 -0.5421 -0.9461
18749THY    CA459195   8.783   7.990   2.629 -0.2851  0.3784 -0.3176
18749THY    HA459196   8.723   7.910   2.672 -0.6790  1.9645  0.8018
18749THY    CA559197   8.732   8.075   2.532  0.0125  0.2890 -0.3543
18749THY    CM159198   8.590   8.061   2.478 -0.4891 -0.2773 -0.7225
18749THY    HM159199   8.531   8.154   2.476 -1.4495 -3.7507 -1.2883
18749THY    HM259200   8.535   7.990   2.541 -0.5447  0.4430 -0.0624
18749THY    HM359201   8.587   8.021   2.377 -0.3380  0.1206 -1.7647
18749THY    CA659202   8.808   8.186   2.496  0.5754 -0.1377 -0.8648
18749THY    HA659203   8.771   8.264   2.430 -0.3289 -0.6123 -1.6751
18750THY      O59204   2.540   7.562   1.737 -0.6271  0.3237 -0.6982
18750THY     HO59205   2.490   7.531   1.659 -1.4030  0.1632  0.8599
18750THY    CA159206   2.587   7.454   1.793 -0.4090 -0.7515  0.2342
18750THY    CA259207   2.532   7.399   1.910 -0.2886 -0.8085  0.3729
18750THY    CP159208   2.404   7.470   1.975 -0.0685  0.9381  0.0510
18750THY    HP159209   2.342   7.495   1.888  0.1058  0.5540 -0.7990
18750THY    CP259210   2.436   7.597   2.048  0.7609  0.3784 -0.6941
18750THY    HP259211   2.484   7.579   2.145  0.4627  0.8893  1.0184
18750THY    HP359212   2.346   7.654   2.074 -0.5481  3.0367 -3.6601
18750THY    HP459213   2.508   7.657   1.992  2.9115  3.0902 -0.5534
18750THY    CP359214   2.318   7.377   2.075 -0.0458 -0.0594  0.0706
18750THY    HP559215   2.276   7.302   2.007  1.9396 -3.2876  1.6511
18750THY    HP659216   2.232   7.433   2.116 -0.4875 -0.8504 -0.0187
18750THY    HP759217   2.373   7.328   2.156  0.3457 -1.3908 -1.7779
18750THY    CA359218   2.589   7.282   1.960  0.0060  0.0675  0.0945
18750THY    HA359219   2.553   7.231   2.049  0.7364  0.7005  0.6622
18750THY    CA459220   2.703   7.229   1.896  0.6014  0.2907  0.9888
18750THY    HA459221   2.742   7.133   1.927 -0.0057 -0.4698  0.4805
18750THY    CA559222   2.761   7.287   1.785 -0.3520 -0.2910 -0.4748
18750THY    CM159223   2.860   7.208   1.705 -0.5465  0.4156 -0.0204
18750THY    HM159224   2.913   7.120   1.742 -0.0703  2.3717  1.0136
18750THY    HM259225   2.933   7.271   1.654 -0.3788 -1.6160 -1.7853
18750THY    HM359226   2.798   7.183   1.619 -0.0298 -0.1427  0.6009
18750THY    CA659227   2.700   7.402   1.729 -0.3673  0.2762 -0.7316
18750THY    HA659228   2.735   7.449   1.638  0.1084  1.8351  2.1384
18751THY      O59229   4.597   5.717   2.784 -0.0606  0.5823 -0.0718
18751THY     HO59230   4.617   5.635   2.832 -0.0858  0.7087 -0.0045
18751THY    CA159231   4.564   5.812   2.876 -0.7838  0.1769 -0.1253
18751THY    CA259232   4.516   5.943   2.845 -0.0387  0.7130  0.3339
18751THY    CP159233   4.505   5.984   2.707 -0.2707  0.1756 -0.6400
18751THY    HP159234   4.502   5.891   2.648 -3.1176 -0.1384 -0.4587
18751THY    CP259235   4.632   6.064   2.675 -0.2776 -0.4129  0.0601
18751THY    HP259236   4.633   6.172   2.692  0.2526  0.0467 -0.0175
18751THY    HP359237   4.653   6.058   2.567 -3.1237 -1.0053 -1.4166
18751THY    HP459238   4.719   6.032   2.733  2.1637 -3.9424 -0.3037
18751THY    CP359239   4.386   6.076   2.671  0.6846 -0.2286 -0.1943
18751THY    HP559240   4.367   6.148   2.752  1.6719 -2.3031  2.5859
18751THY    HP659241   4.301   6.009   2.656  0.1847  0.0375  0.3718
18751THY    HP759242   4.396   6.130   2.577 -0.2416  0.7631  1.8134
18751THY    CA359243   4.490   6.038   2.946  0.0038  0.4586 -0.1250
18751THY    HA359244   4.467   6.142   2.923 -2.2235 -0.5277 -0.7710
18751THY    CA459245   4.506   5.997   3.081 -0.1404 -0.2841  0.2662
18751THY    HA459246   4.493   6.075   3.156  1.1504 -2.2004  2.4751
18751THY    CA559247   4.549   5.864   3.109 -0.2070  0.2503 -0.2753
18751THY    CM159248   4.558   5.808   3.249 -0.3531  0.1982 -0.1433
18751THY    HM159249   4.657   5.766   3.266 -0.1443  0.9418  0.6246
18751THY    HM259250   4.479   5.734   3.269 -0.3061 -0.2656 -0.3234
18751THY    HM359251   4.546   5.891   3.319  0.0032 -0.4277  0.4450
18751THY    CA659252   4.584   5.776   3.008 -0.4639  0.3053 -0.0848
18751THY    HA659253   4.620   5.676   3.032 -1.6665  0.3553 -0.5176
18752THY      O59254   4.600   0.887   7.293  0.2210  0.0760 -0.3846
18752THY     HO59255   4.657   0.899   7.215 -0.4128 -0.7615 -2.3247
18752THY    CA159256   4.548   1.012   7.314  0.3729  0.7442 -0.3899
18752THY    CA259257   4.471   1.040   7.430  0.2650  0.0628  0.2345
18752THY    CP159258   4.477   0.943   7.543  0.4457 -0.2578 -0.3442
18752THY    HP159259   4.485   0.842   7.503  1.1825 -0.1345 -0.3400
18752THY    CP259260   4.347   0.938   7.629  0.7667 -0.7479 -0.1660
18752THY    HP259261   4.348   0.857   7.703 -0.3755 -1.1122 -0.5266
18752THY    HP359262   4.260   0.939   7.562 -0.0289  0.1744  2.9283
18752THY    HP459263   4.338   1.027   7.692  0.7448 -2.1362  0.8512
18752THY    CP359264   4.599   0.956   7.634  0.1036 -0.9473 -0.8080
18752THY    HP559265   4.692   0.958   7.576  0.0724 -0.9720  0.4509
18752THY    HP659266   4.608   0.866   7.697 -0.2543  3.4160  1.9009
18752THY    HP759267   4.585   1.046   7.694  0.1271 -1.9010 -0.1557
18752THY    CA359268   4.410   1.169   7.438  0.0215 -0.2986 -0.3063
18752THY    HA359269   4.341   1.192   7.520  1.4858  0.8406  0.1967
18752THY    CA459270   4.415   1.252   7.324  0.2241  0.3340  0.0405
18752THY    HA459271   4.352   1.341   7.324  0.8516 -2.4234  0.5729
18752THY    CA559272   4.491   1.224   7.211 -0.4556 -0.3960  0.4739
18752THY    CM159273   4.516   1.313   7.087 -0.6373 -0.1831  0.4287
18752THY    HM159274   4.619   1.347   7.071 -0.9814 -1.8716  0.7666
18752THY    HM259275   4.471   1.411   7.102 -0.7890  1.0621  0.1761
18752THY    HM359276   4.490   1.251   7.000  1.7026 -0.0403 -0.9122
18752THY    CA659277   4.558   1.104   7.207  0.6098 -0.1003 -0.5547
18752THY    HA659278   4.619   1.083   7.120  1.8323  0.7435 -0.6553
18753THY      O59279   4.094   3.040   5.192 -0.4742 -0.1717  0.1160
18753THY     HO59280   4.186   3.051   5.164 -0.9333 -1.3133  1.4009
18753THY    CA159281   4.091   3.146   5.271 -0.1823 -0.2663 -0.0992
18753THY    CA259282   3.978   3.195   5.328  0.1444  0.2826 -0.9123
18753THY    CP159283   3.838   3.125   5.306  0.0112 -0.3259 -0.2913
18753THY    HP159284   3.859   3.020   5.281  0.1757  1.5118 -0.7445
18753THY    CP259285   3.762   3.207   5.192 -0.8164 -0.2571  0.6834
18753THY    HP259286   3.815   3.234   5.100  0.7474  0.9764  2.0027
18753THY    HP359287   3.722   3.298   5.237 -0.3272  0.1278  0.7081
18753THY    HP459288   3.675   3.148   5.161 -1.2167  2.4139 -0.2678
18753THY    CP359289   3.764   3.128   5.439 -0.1882  0.0502 -0.7811
18753THY    HP559290   3.676   3.066   5.421 -0.6405 -0.5800  0.0157
18753THY    HP659291   3.716   3.225   5.460 -6.6565 -2.6015 -2.8376
18753THY    HP759292   3.822   3.096   5.526 -3.0501  2.7857  0.9196
18753THY    CA359293   3.985   3.312   5.398  0.1035  0.1644  0.0836
18753THY    HA359294   3.895   3.357   5.438 -0.4437 -0.4111 -0.4891
18753THY    CA459295   4.108   3.374   5.417  0.6994  0.2569  0.1055
18753THY    HA459296   4.099   3.467   5.472 -0.1217 -1.0474  0.8199
18753THY    CA559297   4.229   3.314   5.374 -0.2060 -0.8318  0.4527
18753THY    CM159298   4.360   3.377   5.402 -0.1508  0.0601  0.5845
18753THY    HM159299   4.388   3.396   5.506  0.6033  0.0116 -0.2040
18753THY    HM259300   4.360   3.471   5.344 -0.8951  1.2130  1.3238
18753THY    HM359301   4.441   3.314   5.363 -1.4093  0.4498 -1.3461
18753THY    CA659302   4.217   3.203   5.296 -1.0693  0.3525  0.2201
18753THY    HA659303   4.308   3.161   5.254  0.2012  1.4463  1.7930
18754THY      O59304   4.207   2.535   2.606  0.2920 -0.1448  0.1019
18754THY     HO59305   4.295   2.538   2.564  0.1696 -0.3660  1.2978
18754THY    CA159306   4.149   2.657   2.620 -0.4263  0.4455 -0.6338
18754THY    CA259307   4.026   2.668   2.685  0.0003 -0.3187 -0.6527
18754THY    CP159308   3.955   2.546   2.735  0.2985 -0.0419  1.2798
18754THY    HP159309   4.014   2.456   2.753 -2.8352 -1.7013 -1.3288
18754THY    CP259310   3.861   2.494   2.625  0.0437 -0.5535 -0.4329
18754THY    HP259311   3.828   2.393   2.652 -0.4780  0.9586  0.1135
18754THY    HP359312   3.913   2.500   2.528 -0.7457 -0.8846  2.1088
18754THY    HP459313   3.779   2.567   2.620  0.2736 -1.7940 -0.2363
18754THY    CP359314   3.866   2.569   2.871 -0.3581  0.1496  0.4036
18754THY    HP559315   3.933   2.609   2.948 -0.7092  0.7683 -0.1864
18754THY    HP659316   3.826   2.476   2.913 -0.1411  2.9144  1.4481
18754THY    HP759317   3.782   2.638   2.862  0.8036 -0.4348  1.7972
18754THY    CA359318   3.979   2.804   2.703  0.5096 -0.2657 -0.4613
18754THY    HA359319   3.887   2.824   2.757  1.2915  0.8303  0.2713
18754THY    CA459320   4.052   2.916   2.656  0.1691 -0.6274  0.2161
18754THY    HA459321   4.010   3.014   2.679  1.2747  0.0907  0.5522
18754THY    CA559322   4.177   2.901   2.593  0.0829  0.7872  0.4538
18754THY    CM159323   4.229   3.016   2.512 -0.8063  0.6305 -0.0388
18754THY    HM159324   4.240   2.999   2.404  0.0459  0.9217 -1.4464
18754THY    HM259325   4.327   3.047   2.550  0.6277 -1.1800 -2.0863
18754THY    HM359326   4.162   3.103   2.507  0.3080 -2.3123  0.7955
18754THY    CA659327   4.217   2.769   2.573 -0.6920 -0.4403 -0.6970
18754THY    HA659328   4.309   2.757   2.515 -0.5239 -0.5517  0.9026
18755THY      O59329   1.083   0.740   5.435  0.3630 -0.1461  0.6568
18755THY     HO59330   1.156   0.703   5.487 -0.7097  0.6354 -0.4397
18755THY    CA159331   1.029   0.650   5.355 -0.4064 -0.6077  0.4651
18755THY    CA259332   0.956   0.686   5.238  1.0669  0.4408  0.3042
18755THY    CP159333   0.931   0.832   5.196  0.2032 -0.3919 -0.2772
18755THY    HP159334   0.980   0.901   5.265 -1.0846 -1.2169  1.5323
18755THY    CP259335   0.781   0.861   5.190  0.0032  0.4722  0.7016
18755THY    HP259336   0.757   0.868   5.297  3.9332  1.4817  0.7026
18755THY    HP359337   0.718   0.792   5.132  1.7364 -2.6084  1.5066
18755THY    HP459338   0.757   0.958   5.146 -1.0874 -2.6409 -0.8553
18755THY    CP359339   0.995   0.861   5.061 -0.7401  0.4600 -0.0291
18755THY    HP559340   0.980   0.964   5.025  2.5133 -1.1697 -0.0029
18755THY    HP659341   0.960   0.788   4.988 -0.1454  0.2034 -0.0622
18755THY    HP759342   1.104   0.848   5.067 -0.9757 -0.3159 -2.8031
18755THY    CA359343   0.893   0.582   5.161  0.2615 -0.2200 -0.2384
18755THY    HA359344   0.846   0.606   5.066  2.8695 -1.1926  1.5793
18755THY    CA459345   0.891   0.450   5.206 -0.4167  0.4274 -0.2357
18755THY    HA459346   0.835   0.372   5.155 -3.0782  3.2570 -0.3851
18755THY    CA559347   0.964   0.414   5.317 -0.6513  0.3606 -0.5745
18755THY    CM159348   0.975   0.268   5.349 -0.2986 -0.3018  0.1301
18755THY    HM159349   0.994   0.198   5.267 -0.7786 -1.8607  1.7541
18755THY    HM259350   0.894   0.238   5.417 -1.4437 -0.7942  1.9112
18755THY    HM359351   1.068   0.257   5.405  0.3567 -1.4936 -0.5368
18755THY    CA659352   1.035   0.512   5.389 -0.3236  0.1078 -0.3454
18755THY    HA659353   1.081   0.484   5.483  2.4420 -0.8786  0.5945
18756THY      O59354   2.979   2.357   7.651  0.3224 -0.7196  0.5225
18756THY     HO59355   2.923   2.338   7.573 -0.8139  0.2031  0.0159
18756THY    CA159356   3.000   2.488   7.642  0.5351  0.0690  0.3085
18756THY    CA259357   3.097   2.544   7.719 -0.4062 -0.2931 -0.3946
18756THY    CP159358   3.187   2.463   7.814 -0.2570 -0.1322 -0.4809
18756THY    HP159359   3.147   2.361   7.819 -1.2210 -3.1701 -0.3442
18756THY    CP259360   3.201   2.518   7.957 -0.8192 -0.2052  0.0307
18756THY    HP259361   3.103   2.536   8.004 -0.9155  0.0192 -1.0193
18756THY    HP359362   3.259   2.611   7.962 -3.2992 -1.4801  1.7628
18756THY    HP459363   3.260   2.442   8.010  2.7687 -3.4206  0.2767
18756THY    CP359364   3.328   2.460   7.742 -0.3186  0.1568 -0.1562
18756THY    HP559365   3.373   2.559   7.754  0.4118  0.5482 -0.5270
18756THY    HP659366   3.309   2.450   7.635  2.0222 -0.6402  2.5934
18756THY    HP759367   3.383   2.373   7.778 -1.9969  0.8773 -0.9663
18756THY    CA359368   3.111   2.687   7.714  0.7620  0.0789  0.2141
18756THY    HA359369   3.195   2.731   7.767  0.9356 -0.5289  0.6251
18756THY    CA459370   3.019   2.764   7.628  0.2795  0.1565  0.2103
18756THY    HA459371   3.030   2.871   7.642  2.5189 -0.5492  0.1246
18756THY    CA559372   2.922   2.703   7.554  0.0625  0.0805 -0.2598
18756THY    CM159373   2.832   2.788   7.469 -0.2719 -0.2410  0.6762
18756THY    HM159374   2.777   2.850   7.541 -1.1221 -0.7793  0.5565
18756THY    HM259375   2.754   2.726   7.423  0.4420 -0.7820  0.1682
18756THY    HM359376   2.890   2.837   7.390 -0.1766 -0.3818  0.3330
18756THY    CA659377   2.909   2.566   7.566  0.1040 -0.0784  1.2693
18756THY    HA659378   2.833   2.519   7.504  1.1445 -0.8195  0.5082
18757THY      O59379   2.507   7.387   3.283  0.6778  0.3416  0.0286
18757THY     HO59380   2.547   7.326   3.347 -2.1778  0.6632 -1.6977
18757THY    CA159381   2.607   7.427   3.202  0.4197 -0.1973 -0.1061
18757THY    CA259382   2.581   7.528   3.104 -0.2265 -0.5947 -0.5157
18757THY    CP159383   2.440   7.591   3.098 -0.5649  0.6375  0.3966
18757THY    HP159384   2.366   7.539   3.160 -0.0892  1.5850  0.8228
18757THY    CP259385   2.385   7.606   2.954 -0.0116  0.1981 -0.3270
18757THY    HP259386   2.280   7.636   2.962 -0.2227  3.1517 -1.5281
18757THY    HP359387   2.384   7.524   2.881  0.0651  1.4312 -1.4458
18757THY    HP459388   2.451   7.686   2.916  1.1401  0.5933 -1.0680
18757THY    CP359389   2.442   7.738   3.163 -0.0598 -0.6567 -0.0056
18757THY    HP559390   2.462   7.726   3.270 -0.1134 -0.7158 -0.6560
18757THY    HP659391   2.350   7.796   3.149  0.0828  0.1609  0.4270
18757THY    HP759392   2.528   7.791   3.120  1.8290  1.2394 -1.3535
18757THY    CA359393   2.690   7.567   3.017  0.4855 -0.4432  0.0146
18757THY    HA359394   2.679   7.646   2.943 -0.3581 -0.2753  0.0551
18757THY    CA459395   2.811   7.503   3.021 -0.6293 -0.3242  0.6289
18757THY    HA459396   2.886   7.524   2.945 -0.8926 -0.9546 -0.6588
18757THY    CA559397   2.834   7.397   3.110 -0.0954  0.0423  0.7081
18757THY    CM159398   2.964   7.318   3.115  0.4471  1.2045 -0.0674
18757THY    HM159399   3.052   7.370   3.152  1.1269 -0.6850  0.2217
18757THY    HM259400   2.984   7.289   3.011  0.8565  1.3391 -0.2719
18757THY    HM359401   2.954   7.226   3.174 -0.6268  1.5536  0.2552
18757THY    CA659402   2.731   7.367   3.199 -0.0870  0.0856  0.2127
18757THY    HA659403   2.757   7.291   3.273 -0.1884  1.0296  1.0770
18758THY      O59404   5.826   5.489   2.151  0.1264  0.9252 -0.2133
18758THY     HO59405   5.732   5.485   2.127  0.6183 -1.5671  0.8493
18758THY    CA159406   5.844   5.483   2.281  0.5639  0.4898 -0.2011
18758THY    CA259407   5.968   5.495   2.347 -0.3504 -0.0658 -0.2312
18758THY    CP159408   6.102   5.543   2.272  0.2726 -0.5473  0.2894
18758THY    HP159409   6.096   5.551   2.163 -0.4311 -0.6034 -0.7663
18758THY    CP259410   6.213   5.450   2.304  0.0701 -0.5585 -0.4663
18758THY    HP259411   6.185   5.344   2.303 -2.2942  0.4049  0.1011
18758THY    HP359412   6.268   5.481   2.393 -0.5396 -0.8654  1.6753
18758THY    HP459413   6.287   5.461   2.223  0.6127 -0.0856 -0.5821
18758THY    CP359414   6.133   5.687   2.309 -0.2682  0.4867  0.0868
18758THY    HP559415   6.059   5.752   2.260  2.1960  0.4385  3.1131
18758THY    HP659416   6.228   5.721   2.265  0.0914 -0.0331 -1.5112
18758THY    HP759417   6.127   5.694   2.418 -0.2150  0.4950  0.0057
18758THY    CA359418   5.981   5.474   2.485  0.1414 -0.6629 -0.5708
18758THY    HA359419   6.073   5.497   2.538  0.1809  0.2006 -2.4665
18758THY    CA459420   5.868   5.430   2.553  0.1074 -0.2323  0.0135
18758THY    HA459421   5.877   5.403   2.657  1.5978 -0.1285  0.8103
18758THY    CA559422   5.749   5.394   2.488  0.7138 -0.4218  0.0290
18758THY    CM159423   5.632   5.342   2.559  0.4046  0.7434  0.1757
18758THY    HM159424   5.552   5.323   2.487 -0.2286  1.2799  0.7414
18758THY    HM259425   5.598   5.411   2.637 -2.0540 -1.1317  1.2423
18758THY    HM359426   5.657   5.244   2.603 -2.4312  0.8814 -0.5632
18758THY    CA659427   5.736   5.424   2.351 -0.5026  0.5592 -0.4201
18758THY    HA659428   5.640   5.421   2.300 -0.2959 -0.4510  3.8276
18759THY      O59429   5.947   4.238   7.142  0.0587  0.4565  0.7471
18759THY     HO59430   5.859   4.252   7.102  0.3047 -0.0292  0.9228
18759THY    CA159431   6.015   4.144   7.075 -0.0091  0.2317  0.0087
18759THY    CA259432   6.125   4.074   7.134 -0.7521 -0.0946 -0.6921
18759THY    CP159433   6.190   4.099   7.276 -0.6802  0.1283 -1.2261
18759THY    HP159434   6.156   4.194   7.319  0.8606  2.5867 -1.7010
18759THY    CP259435   6.346   4.110   7.262  0.3303  0.5120  0.6734
18759THY    HP259436   6.392   4.170   7.341 -0.8708  1.5982  0.1878
18759THY    HP359437   6.374   4.161   7.169 -0.6380 -0.4159 -0.4226
18759THY    HP459438   6.396   4.012   7.263  1.4334 -0.2332  1.2037
18759THY    CP359439   6.152   3.989   7.367 -0.0560 -1.3238  0.2926
18759THY    HP559440   6.189   3.893   7.328 -0.0625 -0.5403 -0.0356
18759THY    HP659441   6.043   3.984   7.376 -0.0588 -1.9408 -1.5068
18759THY    HP759442   6.195   4.011   7.465  0.5443 -1.6779  0.7254
18759THY    CA359443   6.197   3.983   7.047  0.4789 -0.1689 -0.3747
18759THY    HA359444   6.288   3.930   7.073  1.7658 -0.6299  1.5282
18759THY    CA459445   6.155   3.964   6.913  0.0978 -0.5402  0.1370
18759THY    HA459446   6.196   3.887   6.849 -0.9255  0.2491 -1.1176
18759THY    CA559447   6.047   4.032   6.869 -0.3737 -0.7953 -0.6398
18759THY    CM159448   5.990   4.026   6.724 -0.5588 -0.0651 -0.3944
18759THY    HM159449   6.003   4.115   6.662 -1.5495  1.9359  1.2066
18759THY    HM259450   5.885   3.996   6.739 -1.0467 -0.4297  1.0576
18759THY    HM359451   6.042   3.941   6.679  1.0056 -0.0007  0.5086
18759THY    CA659452   5.976   4.125   6.950 -0.0118  0.1220  0.2687
18759THY    HA659453   5.900   4.187   6.903  0.1828 -0.4074  0.1181
18760THY      O59454   0.873   5.866   4.817  0.3123  0.2751  0.5476
18760THY     HO59455   0.887   5.961   4.802  1.7291  0.4164  0.3938
18760THY    CA159456   0.990   5.801   4.818  0.3458  0.9309  0.6532
18760THY    CA259457   0.995   5.660   4.803  0.1716 -0.5015  0.3022
18760THY    CP159458   0.865   5.580   4.780  0.0185 -0.5424 -1.1667
18760THY    HP159459   0.782   5.628   4.832  0.4783 -2.6370  2.1776
18760THY    CP259460   0.876   5.436   4.826 -0.1788 -0.5300  0.8292
18760THY    HP259461   0.781   5.383   4.845 -0.0983  2.5320  1.5847
18760THY    HP359462   0.923   5.429   4.924  0.3442 -0.8547 -0.4087
18760THY    HP459463   0.941   5.366   4.772 -0.2626 -0.0216  0.3543
18760THY    CP359464   0.837   5.571   4.627  0.5342 -0.2963  1.1996
18760THY    HP559465   0.732   5.597   4.606  0.4560  1.0243  2.0442
18760THY    HP659466   0.839   5.468   4.591 -0.1497 -0.5946  1.2843
18760THY    HP759467   0.896   5.642   4.568  0.4088 -2.8273 -0.6655
18760THY    CA359468   1.122   5.599   4.800  0.0489 -0.3999  0.5741
18760THY    HA359469   1.140   5.492   4.801  0.4859 -0.7450  0.6430
18760THY    CA459470   1.234   5.679   4.817  0.6170  0.4805 -0.1255
18760THY    HA459471   1.330   5.633   4.839  0.4270  0.6738 -0.4275
18760THY    CA559472   1.231   5.815   4.818 -0.0639 -0.4145 -0.1778
18760THY    CM159473   1.358   5.891   4.841 -0.1545  0.1941  0.2113
18760THY    HM159474   1.339   5.969   4.915  1.5498  0.6861  0.2041
18760THY    HM259475   1.382   5.949   4.751  1.3749  0.5082  0.1135
18760THY    HM359476   1.450   5.837   4.865  0.6055  0.0969  1.4191
18760THY    CA659477   1.108   5.879   4.822  0.3877 -1.1582  0.2940
18760THY    HA659478   1.099   5.986   4.836 -2.3672  0.2052 -0.0372
18761THY      O59479   5.568   5.412   2.024 -0.6345  0.1150 -0.0487
18761THY     HO59480   5.602   5.333   1.979 -0.0638  0.3330  0.0685
18761THY    CA159481   5.443   5.438   1.979  0.2950 -0.0498  0.7921
18761THY    CA259482   5.334   5.478   2.065  0.0577 -0.4413  0.5260
18761THY    CP159483   5.361   5.481   2.217  0.4820 -0.4109 -0.2672
18761THY    HP159484   5.424   5.396   2.243  1.5841 -1.3349  0.2373
18761THY    CP259485   5.229   5.460   2.295 -0.6082 -0.4305  0.0867
18761THY    HP259486   5.243   5.473   2.403  1.2196 -0.3918 -1.6993
18761THY    HP359487   5.195   5.359   2.272 -0.3399  1.5031 -0.4830
18761THY    HP459488   5.150   5.533   2.272 -0.9882 -1.1047 -0.5259
18761THY    CP359489   5.429   5.615   2.269 -0.2088  0.0294  0.4917
18761THY    HP559490   5.485   5.590   2.359  0.7000  0.2865  3.1562
18761THY    HP659491   5.352   5.686   2.301 -0.7154  0.5738 -0.2746
18761THY    HP759492   5.496   5.648   2.189 -0.2912  0.0716  0.7635
18761THY    CA359493   5.202   5.488   2.013  0.6418  0.7737 -0.7320
18761THY    HA359494   5.112   5.515   2.067 -0.2595 -1.0383  0.1009
18761THY    CA459495   5.194   5.475   1.874 -1.2109 -0.0657  0.1770
18761THY    HA459496   5.099   5.487   1.823 -1.4063 -0.1745 -1.5643
18761THY    CA559497   5.301   5.435   1.792  0.3698  0.2630 -0.4422
18761THY    CM159498   5.299   5.433   1.643  0.4964 -0.8713  0.2911
18761THY    HM159499   5.348   5.349   1.591  1.1346 -0.9021  0.6799
18761THY    HM259500   5.332   5.534   1.616  0.6479  0.9524  0.7551
18761THY    HM359501   5.196   5.426   1.604 -1.0043  2.3063  2.4904
18761THY    CA659502   5.426   5.416   1.849 -0.2687 -1.3936  0.0475
18761THY    HA659503   5.515   5.382   1.796 -0.6417 -0.8981 -1.8313
18762THY      O59504   2.052   6.226   4.381 -0.2815  0.1316 -0.1461
18762THY     HO59505   2.144   6.195   4.383 -0.2527  0.0473 -0.0662
18762THY    CA159506   2.043   6.321   4.484  0.2262  0.5826  0.2354
18762THY    CA259507   1.925   6.378   4.505 -1.9244 -0.7050 -0.1007
18762THY    CP159508   1.821   6.360   4.398  0.6335 -0.1952  0.5480
18762THY    HP159509   1.867   6.341   4.300  0.3218 -0.4428  1.0403
18762THY    CP259510   1.722   6.472   4.371  0.7612 -0.2069 -0.1755
18762THY    HP259511   1.640   6.480   4.443 -0.2508 -0.9968 -2.5400
18762THY    HP359512   1.668   6.469   4.276 -1.5553  1.0482 -0.6386
18762THY    HP459513   1.764   6.572   4.381 -1.9734  0.6419  0.9859
18762THY    CP359514   1.745   6.226   4.430  0.2788 -0.2860 -0.4649
18762THY    HP559515   1.717   6.232   4.536  2.2257  0.3010 -0.8631
18762THY    HP659516   1.816   6.142   4.420  0.1459  2.7839 -1.0530
18762THY    HP759517   1.660   6.210   4.363 -0.1610  0.5311 -1.6410
18762THY    CA359518   1.895   6.430   4.641  0.5967  0.5187  0.0098
18762THY    HA359519   1.796   6.461   4.670 -0.3510  0.4181 -2.6946
18762THY    CA459520   2.001   6.439   4.733 -0.1753 -0.4415 -0.0335
18762THY    HA459521   1.986   6.481   4.832 -1.2592 -0.0477 -1.2666
18762THY    CA559522   2.129   6.398   4.694  0.9905 -0.2528  0.0913
18762THY    CM159523   2.236   6.386   4.800 -0.0356  0.5033  0.4309
18762THY    HM159524   2.337   6.382   4.758 -0.0953  0.3981 -0.0389
18762THY    HM259525   2.222   6.291   4.852  0.9317 -0.3668 -0.1979
18762THY    HM359526   2.231   6.473   4.866 -2.3146  1.2336 -0.1624
18762THY    CA659527   2.151   6.338   4.570  0.3456  0.5615  0.4384
18762THY    HA659528   2.252   6.304   4.548  0.7671 -0.7714  2.3691
18763THY      O59529   1.504   0.972   3.790 -0.8912  0.1890  0.1946
18763THY     HO59530   1.533   1.022   3.868 -0.6528  0.7888 -0.8604
18763THY    CA159531   1.375   0.998   3.779 -0.2563  0.6993  0.1220
18763THY    CA259532   1.286   0.933   3.692  0.2765 -0.2483  0.4506
18763THY    CP159533   1.333   0.805   3.611  0.1275 -0.4628  0.2984
18763THY    HP159534   1.442   0.811   3.613  0.2231 -0.7761 -1.0492
18763THY    CP259535   1.267   0.808   3.468 -0.4497  0.5558  0.1966
18763THY    HP259536   1.312   0.739   3.397 -2.7272 -1.4419  0.6166
18763THY    HP359537   1.278   0.903   3.415  0.6158 -1.6489 -1.0940
18763THY    HP459538   1.160   0.787   3.479 -0.4696  0.2049  0.1076
18763THY    CP359539   1.304   0.669   3.685 -0.1266  0.1698  0.0397
18763THY    HP559540   1.357   0.582   3.644 -1.7231 -1.5358 -0.1891
18763THY    HP659541   1.197   0.647   3.677 -0.0845 -0.0715 -0.0832
18763THY    HP759542   1.325   0.669   3.792 -0.5089  0.2588 -1.0495
18763THY    CA359543   1.156   0.976   3.681  0.2856  0.1183 -0.1713
18763THY    HA359544   1.078   0.924   3.626 -1.5925  2.8439 -0.4437
18763THY    CA459545   1.104   1.077   3.762 -0.0140  0.2340 -0.0693
18763THY    HA459546   1.003   1.113   3.750  0.5409 -1.3372  1.1269
18763THY    CA559547   1.195   1.145   3.846 -0.5015 -0.5740  1.0583
18763THY    CM159548   1.149   1.255   3.942 -0.3184  0.2499  0.0532
18763THY    HM159549   1.151   1.353   3.893  1.1454 -0.3781 -0.2643
18763THY    HM259550   1.216   1.261   4.029 -0.4262  0.4749 -1.4377
18763THY    HM359551   1.052   1.235   3.989 -0.7374 -0.7312 -0.3132
18763THY    CA659552   1.327   1.110   3.855 -0.1129  0.0854  0.1406
18763THY    HA659553   1.399   1.168   3.911  0.7260 -2.4973  1.7358
18764THY      O59554   0.657   1.120   2.554  0.7109 -0.0179  0.8257
18764THY     HO59555   0.671   1.085   2.465 -0.4638  0.1803 -0.2010
18764THY    CA159556   0.727   1.045   2.642 -0.6934  0.6451 -0.0393
18764THY    CA259557   0.676   1.018   2.770 -0.0565 -0.0204  0.3494
18764THY    CP159558   0.541   1.081   2.816 -0.4991  0.0690 -0.0853
18764THY    HP159559   0.515   1.164   2.750  2.1061 -0.4071  0.4597
18764THY    CP259560   0.550   1.140   2.963  0.7924 -0.0785  0.2730
18764THY    HP259561   0.623   1.221   2.970 -0.3594 -0.2778  1.3703
18764THY    HP359562   0.554   1.062   3.040  0.4688 -2.3184 -2.1028
18764THY    HP459563   0.455   1.187   2.992  1.3515  0.3519  1.1620
18764THY    CP359564   0.428   0.977   2.808 -0.1155  0.5126  0.0520
18764THY    HP559565   0.421   0.926   2.711 -1.0031  0.4953  0.1925
18764THY    HP659566   0.329   1.018   2.829 -0.6117  0.5616 -1.1381
18764THY    HP759567   0.454   0.907   2.889  1.1192  2.1308  2.2291
18764THY    CA359568   0.743   0.928   2.857  0.5494  0.4293  0.3583
18764THY    HA359569   0.709   0.909   2.958 -0.4236 -0.2588 -1.9384
18764THY    CA459570   0.866   0.878   2.811 -0.1011 -0.2796  0.3915
18764THY    HA459571   0.919   0.794   2.856  0.2491 -1.1140  0.1499
18764THY    CA559572   0.921   0.908   2.685 -0.0323  0.9171 -1.0173
18764THY    CM159573   1.057   0.859   2.645  0.0991  0.1236 -0.0239
18764THY    HM159574   1.071   0.829   2.540 -0.8578  0.4371 -1.7332
18764THY    HM259575   1.098   0.776   2.705 -1.4147  0.8873 -0.2508
18764THY    HM359576   1.126   0.940   2.671  1.7836  0.4775 -1.5122
18764THY    CA659577   0.854   0.996   2.600 -0.0384 -0.1226  0.0867
18764THY    HA659578   0.896   1.032   2.507  1.3774  0.6038  0.3814
18765THY      O59579   5.956   4.549   3.885 -0.1662 -0.5497  1.1103
18765THY     HO59580   5.944   4.632   3.935 -1.6267  0.5523  0.2763
18765THY    CA159581   6.092   4.545   3.870  0.6568  0.8685  0.3589
18765THY    CA259582   6.150   4.459   3.769  0.0103  1.4166 -0.5175
18765THY    CP159583   6.056   4.376   3.676 -0.4809  0.4639  0.0310
18765THY    HP159584   5.974   4.439   3.641 -1.3343  0.3465 -1.1050
18765THY    CP259585   6.009   4.252   3.752 -1.1196  0.1042 -0.0929
18765THY    HP259586   5.936   4.192   3.696  0.5765 -1.5078 -0.7502
18765THY    HP359587   5.973   4.288   3.849 -0.4906 -0.2603  1.6246
18765THY    HP459588   6.085   4.178   3.779 -1.3411  1.7367  0.2476
18765THY    CP359589   6.123   4.334   3.546  0.3104 -0.1764 -0.1520
18765THY    HP559590   6.191   4.249   3.558 -2.2607 -0.2121 -2.3761
18765THY    HP659591   6.177   4.412   3.492  1.3276  1.5088  0.3455
18765THY    HP759592   6.044   4.289   3.484  0.4886  1.5577 -3.1366
18765THY    CA359593   6.288   4.452   3.759  0.2911 -0.6652  0.0802
18765THY    HA359594   6.332   4.397   3.676  3.6293  1.5031 -0.7870
18765THY    CA459595   6.369   4.521   3.850  1.1521  0.0026 -0.3375
18765THY    HA459596   6.477   4.507   3.844  0.9091  0.8294 -3.1924
18765THY    CA559597   6.313   4.609   3.952  0.0254 -0.1598  0.8624
18765THY    CM159598   6.406   4.687   4.047  0.5979  0.1138  0.4266
18765THY    HM159599   6.395   4.650   4.149  2.5544  1.0579  2.2127
18765THY    HM259600   6.369   4.790   4.053 -2.4742 -1.2573 -0.4985
18765THY    HM359601   6.515   4.674   4.042  0.8890  2.7268  1.2373
18765THY    CA659602   6.171   4.617   3.959  0.0348  0.2950 -0.6156
18765THY    HA659603   6.132   4.690   4.029  0.0993 -0.5084  0.2085
18766THY      O59604   2.221   8.336   6.428  0.3179  0.0689 -0.0477
18766THY     HO59605   2.309   8.318   6.465  0.0690  0.2253 -0.9781
18766THY    CA159606   2.191   8.242   6.334  0.3208  0.0077 -0.0779
18766THY    CA259607   2.070   8.229   6.266  0.4628 -0.0233 -0.1809
18766THY    CP159608   1.962   8.337   6.271 -0.0012 -0.4148 -0.2796
18766THY    HP159609   1.984   8.418   6.340 -1.2720  0.0294 -0.2913
18766THY    CP259610   1.830   8.266   6.317 -0.9757  0.9497 -0.3008
18766THY    HP259611   1.754   8.338   6.352  0.4864  1.4479  1.0518
18766THY    HP359612   1.851   8.193   6.396  4.9217  0.1878  0.0709
18766THY    HP459613   1.788   8.223   6.225  0.0085  0.1471  0.4037
18766THY    CP359614   1.944   8.414   6.139 -0.3807 -0.3001  0.5801
18766THY    HP559615   1.858   8.481   6.150 -1.4352  1.2871 -0.9493
18766THY    HP659616   1.922   8.342   6.059 -2.8495  0.9410 -0.1620
18766THY    HP759617   2.040   8.461   6.116 -0.0375 -0.4423 -0.1668
18766THY    CA359618   2.059   8.126   6.166 -0.0962  0.2379  0.7350
18766THY    HA359619   1.977   8.125   6.095 -0.4160  0.5547 -1.8119
18766THY    CA459620   2.152   8.030   6.161 -0.1440 -0.7233  0.2956
18766THY    HA459621   2.165   7.963   6.076  0.8934  0.1636 -0.6627
18766THY    CA559622   2.269   8.032   6.241 -0.3179 -0.3740  1.2409
18766THY    CM159623   2.379   7.931   6.243 -0.4688  0.2961  0.2349
18766THY    HM159624   2.476   7.978   6.264 -0.1029  0.3015 -0.5203
18766THY    HM259625   2.387   7.895   6.140  1.9588  0.2338  0.7862
18766THY    HM359626   2.367   7.851   6.316  0.8727 -1.8741 -2.1157
18766THY    CA659627   2.290   8.149   6.315 -0.3872  0.5810  0.2227
18766THY    HA659628   2.382   8.162   6.370 -0.0673  0.1638 -0.2169
18767THY      O59629   3.162   7.334   6.895 -0.2991 -0.3964  0.1555
18767THY     HO59630   3.066   7.342   6.911 -0.5326 -0.3483 -2.0572
18767THY    CA159631   3.180   7.367   6.764  0.6400 -0.0420  0.4454
18767THY    CA259632   3.307   7.410   6.715 -0.2105  0.3179  0.0121
18767THY    CP159633   3.424   7.407   6.812  0.2631 -0.5798  0.5910
18767THY    HP159634   3.405   7.324   6.881  0.7481 -2.6147 -1.2952
18767THY    CP259635   3.419   7.538   6.892 -0.2691  0.2602 -0.3121
18767THY    HP259636   3.489   7.529   6.976  0.7215 -0.6325 -1.0538
18767THY    HP359637   3.318   7.559   6.928 -0.9496 -1.3708 -0.6637
18767THY    HP459638   3.450   7.613   6.818  1.0214 -0.9759 -1.9997
18767THY    CP359639   3.565   7.393   6.749  0.0063  0.2309 -0.3935
18767THY    HP559640   3.581   7.468   6.670  1.3140  0.6648 -0.2011
18767THY    HP659641   3.577   7.296   6.701 -0.0247  0.1077 -0.3377
18767THY    HP759642   3.637   7.406   6.830  0.2408 -0.2563  1.8234
18767THY    CA359643   3.311   7.458   6.577 -0.6820 -0.6528 -0.1232
18767THY    HA359644   3.399   7.489   6.522 -0.5228 -0.3715 -0.0690
18767THY    CA459645   3.195   7.453   6.503 -0.1544  0.7825  1.0843
18767THY    HA459646   3.212   7.471   6.398  1.1774  0.8406  0.2675
18767THY    CA559647   3.072   7.401   6.552 -0.7558  0.1106  0.7721
18767THY    CM159648   2.952   7.387   6.469  0.0108 -0.2274 -0.1875
18767THY    HM159649   2.892   7.303   6.506 -1.2961 -1.3309  0.2283
18767THY    HM259650   2.980   7.375   6.364  2.4056  0.2433  0.6508
18767THY    HM359651   2.888   7.476   6.463 -0.6591 -0.2850 -0.6697
18767THY    CA659652   3.067   7.363   6.687  0.5414 -0.0386  0.0930
18767THY    HA659653   2.977   7.321   6.731  0.1062 -0.2718  0.7578
18768THY      O59654   9.340   8.407   4.796 -0.2944 -0.6337 -0.0035
18768THY     HO59655   9.429   8.393   4.832 -0.1985 -0.3280  1.2987
18768THY    CA159656   9.238   8.358   4.875 -0.2460  0.7144  0.3934
18768THY    CA259657   9.112   8.325   4.817 -0.6255 -0.2506 -0.0846
18768THY    CP159658   9.085   8.357   4.671 -0.5894  0.2882 -0.2780
18768THY    HP159659   9.104   8.464   4.662 -1.2980  0.7976 -0.1019
18768THY    CP259660   8.936   8.345   4.641 -0.1430  0.5598 -0.0152
18768THY    HP259661   8.878   8.414   4.705  0.9094  1.2022  0.3059
18768THY    HP359662   8.897   8.243   4.648  0.8734  1.5885 -0.3614
18768THY    HP459663   8.920   8.367   4.535 -1.1767  0.7540  0.2445
18768THY    CP359664   9.175   8.276   4.574  0.0230  0.5556  0.5242
18768THY    HP559665   9.128   8.289   4.475  0.5408  0.2228 -0.0668
18768THY    HP659666   9.183   8.171   4.607  1.5503  1.1344  0.7993
18768THY    HP759667   9.274   8.320   4.586 -0.6716 -0.2597  2.4085
18768THY    CA359668   9.011   8.279   4.911 -1.2576  0.4517  0.6652
18768THY    HA359669   8.907   8.260   4.884 -1.4692  1.8181 -0.2497
18768THY    CA459670   9.048   8.256   5.042  0.2456 -0.6281 -0.2800
18768THY    HA459671   8.976   8.226   5.117  2.1316  1.3244 -0.1595
18768THY    CA559672   9.181   8.285   5.088  0.7335 -0.3611  0.5253
18768THY    CM159673   9.221   8.253   5.230 -0.2459  0.0654  0.7876
18768THY    HM159674   9.258   8.150   5.235 -1.4119  1.1538  0.3974
18768THY    HM259675   9.137   8.248   5.300  1.8113  2.6082 -0.6616
18768THY    HM359676   9.297   8.323   5.267 -1.3873  1.9942  1.0804
18768THY    CA659677   9.274   8.321   5.005 -0.1608  0.2705  0.5798
18768THY    HA659678   9.371   8.326   5.054 -0.8579  1.9224 -1.0287
18769THY      O59679   5.656   3.107   6.322 -0.0149  0.1386 -0.3138
18769THY     HO59680   5.731   3.165   6.347 -1.0722 -3.0801  2.8392
18769THY    CA159681   5.715   3.021   6.232  0.1104 -0.0246  0.8620
18769THY    CA259682   5.633   2.946   6.147 -0.3577  0.5481  0.3321
18769THY    CP159683   5.477   2.951   6.152  0.1594 -0.2723  0.3555
18769THY    HP159684   5.442   3.028   6.222  0.6646  0.2913  0.0776
18769THY    CP259685   5.428   2.811   6.190 -0.4333 -0.1902  0.4120
18769THY    HP259686   5.319   2.810   6.200 -0.7099 -2.5399 -0.2247
18769THY    HP359687   5.478   2.775   6.280 -0.3030 -0.6617 -0.6201
18769THY    HP459688   5.457   2.741   6.111 -0.3618  0.0098  0.2178
18769THY    CP359689   5.418   3.004   6.025 -0.1606 -0.9447 -0.2778
18769THY    HP559690   5.316   3.037   6.049  0.9751  1.6861  1.6946
18769THY    HP659691   5.424   2.926   5.949 -0.0828  1.0622 -2.3367
18769THY    HP759692   5.482   3.087   5.995 -0.1176  1.5626  0.6844
18769THY    CA359693   5.700   2.866   6.051 -0.4422 -0.0593  0.4888
18769THY    HA359694   5.651   2.805   5.975 -0.5152 -0.8478  1.4859
18769THY    CA459695   5.841   2.861   6.047 -0.2292 -0.1579 -0.5696
18769THY    HA459696   5.886   2.794   5.975  0.2591 -0.3079 -0.0833
18769THY    CA559697   5.921   2.936   6.132 -0.1607  0.4969  0.3501
18769THY    CM159698   6.076   2.927   6.126 -0.4356  0.3662  0.2221
18769THY    HM159699   6.125   2.914   6.029  2.4976  1.9838 -1.8938
18769THY    HM259700   6.095   2.832   6.177  1.3809  0.5937  0.6762
18769THY    HM359701   6.120   3.011   6.181 -0.4183  1.7075 -0.6257
18769THY    CA659702   5.855   3.013   6.230 -0.4254 -0.1635 -0.6614
18769THY    HA659703   5.920   3.070   6.297 -3.1962  0.7927  1.6400
18770THY      O59704   4.589   5.818   6.882  0.2961 -0.5249 -0.0076
18770THY     HO59705   4.517   5.822   6.948  1.3218  0.6612 -0.7264
18770THY    CA159706   4.605   5.692   6.827  0.3831 -0.3913  1.3763
18770THY    CA259707   4.660   5.578   6.901  0.0249  0.2582 -0.2343
18770THY    CP159708   4.706   5.589   7.047  0.6360 -0.4944  0.1008
18770THY    HP159709   4.673   5.677   7.103 -1.7900  0.4323 -1.3044
18770THY    CP259710   4.856   5.597   7.054  0.5641  0.1297 -0.3473
18770THY    HP259711   4.885   5.589   7.160 -1.3069  0.7025 -0.1017
18770THY    HP359712   4.904   5.682   7.005  1.5924  1.2089 -0.2705
18770THY    HP459713   4.901   5.506   7.012  1.4212  0.4324 -0.0765
18770THY    CP359714   4.645   5.477   7.142 -0.0432 -0.1700  0.2038
18770THY    HP559715   4.689   5.379   7.121 -1.3169 -3.1052  0.1760
18770THY    HP659716   4.540   5.460   7.117  0.4788 -1.7574 -0.9329
18770THY    HP759717   4.655   5.505   7.248 -0.6466 -0.4864  1.7175
18770THY    CA359718   4.671   5.458   6.834 -0.6356 -0.2028  0.3387
18770THY    HA359719   4.717   5.370   6.880 -2.4846  0.7029 -0.2132
18770THY    CA459720   4.605   5.439   6.708 -0.3525 -0.5222  0.2027
18770THY    HA459721   4.597   5.343   6.657  0.9033  0.5933 -0.5286
18770THY    CA559722   4.542   5.545   6.649  0.0805  0.3648 -0.5799
18770THY    CM159723   4.474   5.532   6.514 -0.3696  0.0420 -1.3517
18770THY    HM159724   4.466   5.428   6.478  0.3075 -1.6725 -0.8401
18770THY    HM259725   4.538   5.589   6.445  0.3514  0.6476 -1.4072
18770THY    HM359726   4.372   5.572   6.512 -0.0488 -1.8906 -0.5306
18770THY    CA659727   4.554   5.673   6.701 -0.1015 -0.6774 -0.1988
18770THY    HA659728   4.498   5.756   6.660  0.2730  0.2771  0.5410
18771THY      O59729   9.000   3.474   4.221  0.4022 -0.5431 -0.3972
18771THY     HO59730   8.970   3.490   4.129  0.7219 -0.4343  0.9535
18771THY    CA159731   9.085   3.573   4.242  0.6216 -0.2910 -0.4224
18771THY    CA259732   9.187   3.576   4.344 -0.5364  0.4248  0.6851
18771THY    CP159733   9.217   3.444   4.429  0.3894  0.5448 -0.2816
18771THY    HP159734   9.129   3.379   4.421 -0.6986  2.9121  0.7876
18771THY    CP259735   9.238   3.478   4.569  0.0470  0.0361 -0.6140
18771THY    HP259736   9.157   3.542   4.604  1.2447  0.2310  0.8534
18771THY    HP359737   9.323   3.545   4.590 -1.3783  2.0734  0.6721
18771THY    HP459738   9.244   3.384   4.625  0.3874 -0.3211 -0.8093
18771THY    CP359739   9.338   3.370   4.375 -0.5501  0.5670  0.3197
18771THY    HP559740   9.340   3.271   4.422  1.0568 -1.4345 -0.6812
18771THY    HP659741   9.439   3.410   4.386  0.2803 -0.7888 -1.2770
18771THY    HP759742   9.320   3.336   4.272  1.4501  0.2034  0.2730
18771THY    CA359743   9.280   3.685   4.342 -0.7173 -0.6069 -0.1990
18771THY    HA359744   9.363   3.689   4.412 -2.2357  1.5787 -3.2416
18771THY    CA459745   9.266   3.790   4.247  0.1786 -0.0439  0.1379
18771THY    HA459746   9.338   3.871   4.243  0.6406 -1.3921 -0.3130
18771THY    CA559747   9.165   3.783   4.155  0.4518  0.0063  0.5366
18771THY    CM159748   9.135   3.895   4.062 -0.3148 -0.3715  0.1215
18771THY    HM159749   9.037   3.941   4.081  0.4752 -0.5102  1.9634
18771THY    HM259750   9.139   3.861   3.958 -0.1064 -0.0147 -0.9733
18771THY    HM359751   9.218   3.966   4.075 -0.3884 -2.9309  0.7778
18771THY    CA659752   9.083   3.676   4.148  0.1422 -0.3083 -0.2184
18771THY    HA659753   9.019   3.668   4.061  1.6803 -1.5067  0.0848
18772THY      O59754   3.783   4.407   2.559 -0.3771 -0.4691  0.6836
18772THY     HO59755   3.836   4.327   2.568 -0.1523  0.0500  0.8822
18772THY    CA159756   3.787   4.480   2.672 -0.1044  0.3066 -1.3783
18772THY    CA259757   3.693   4.577   2.704 -0.0062  0.4181 -0.3379
18772THY    CP159758   3.577   4.608   2.619  0.7680  0.4853  0.0264
18772THY    HP159759   3.585   4.543   2.531  1.0370 -0.8310  1.7893
18772THY    CP259760   3.575   4.759   2.559 -0.4744 -0.1346  0.1252
18772THY    HP259761   3.574   4.828   2.643 -0.2037  0.2496 -0.3344
18772THY    HP359762   3.481   4.783   2.507  0.3962 -2.2590 -0.8408
18772THY    HP459763   3.657   4.780   2.489  0.3448  0.3009 -1.4539
18772THY    CP359764   3.443   4.580   2.684  0.3127 -0.4810  0.5396
18772THY    HP559765   3.426   4.473   2.701 -0.9062 -3.0422  0.2665
18772THY    HP659766   3.363   4.597   2.612  1.5670 -1.9705  0.3507
18772THY    HP759767   3.427   4.633   2.779  0.3350 -0.1910  0.0419
18772THY    CA359768   3.718   4.661   2.809 -0.6273  0.0368 -0.0187
18772THY    HA359769   3.649   4.743   2.830 -0.8084 -0.0670 -0.1454
18772THY    CA459770   3.843   4.647   2.884  0.6127 -0.0472  0.0069
18772THY    HA459771   3.869   4.703   2.974  3.2927 -0.8357  0.1932
18772THY    CA559772   3.928   4.544   2.855 -0.4922 -0.0620  0.4679
18772THY    CM159773   4.041   4.512   2.938  0.3374  0.6301 -0.5679
18772THY    HM159774   4.122   4.491   2.868  0.3798  0.8697 -1.2328
18772THY    HM259775   4.018   4.442   3.019 -0.2451  1.0546  0.1032
18772THY    HM359776   4.068   4.597   3.002  1.7669  0.4647 -0.8733
18772THY    CA659777   3.897   4.465   2.750  1.0305  0.0091  0.7406
18772THY    HA659778   3.957   4.376   2.733  1.6268  2.3805  0.6193
18773THY      O59779   0.590   2.946   5.593 -0.0625 -0.2149  0.2237
18773THY     HO59780   0.581   3.016   5.659  1.0755  2.4106 -1.9380
18773THY    CA159781   0.679   2.857   5.641 -0.2863  0.2422  0.4665
18773THY    CA259782   0.727   2.744   5.563  0.6832  0.3070 -0.0066
18773THY    CP159783   0.679   2.734   5.420 -0.4659 -0.0589  0.3066
18773THY    HP159784   0.629   2.827   5.391  1.0411 -1.9892  0.5877
18773THY    CP259785   0.585   2.614   5.398  0.4366 -0.5091 -0.0798
18773THY    HP259786   0.518   2.599   5.483  1.8073  0.4236 -1.3123
18773THY    HP359787   0.640   2.518   5.396  0.6436 -0.6837  0.0410
18773THY    HP459788   0.519   2.643   5.316 -0.2303 -0.0006 -0.1527
18773THY    CP359789   0.801   2.722   5.322  0.1020  0.0575  0.3203
18773THY    HP559790   0.766   2.708   5.219  0.2479  0.1282 -0.6261
18773THY    HP659791   0.866   2.637   5.345  1.3605 -2.4590  0.5242
18773THY    HP759792   0.865   2.811   5.328  2.5957  0.2719 -1.4117
18773THY    CA359793   0.805   2.649   5.631  0.1841 -0.4241  0.0329
18773THY    HA359794   0.842   2.568   5.570  0.7738 -0.1041  0.0575
18773THY    CA459795   0.837   2.668   5.764  0.9456 -0.3788 -0.1814
18773THY    HA459796   0.904   2.599   5.816  0.6762 -0.5187 -0.5506
18773THY    CA559797   0.798   2.787   5.837  0.3935  0.0956 -0.9761
18773THY    CM159798   0.835   2.815   5.978  1.3586  0.5818 -0.1104
18773THY    HM159799   0.807   2.918   6.001  0.2898 -0.3122 -0.1751
18773THY    HM259800   0.939   2.790   6.003  0.6383  0.7421 -3.5020
18773THY    HM359801   0.769   2.769   6.053 -1.7154 -0.4198  2.3019
18773THY    CA659802   0.719   2.877   5.772  0.5665 -0.7128  0.3305
18773THY    HA659803   0.676   2.965   5.819  1.2475 -0.0772  0.3275
18774THY      O59804   7.124   7.462   4.535 -0.2221  0.4196  0.4354
18774THY     HO59805   7.177   7.486   4.612  0.6450 -0.0952  0.2289
18774THY    CA159806   7.004   7.473   4.588 -0.6806 -0.2022  0.4378
18774THY    CA259807   6.894   7.473   4.510 -0.1090 -0.3575 -0.0587
18774THY    CP159808   6.917   7.501   4.361  0.3777 -0.3086  0.4216
18774THY    HP159809   7.015   7.473   4.322 -0.1165 -2.2963  1.3126
18774THY    CP259810   6.905   7.645   4.334  0.2810 -0.3204  0.6065
18774THY    HP259811   6.951   7.668   4.237  1.8412  0.5221  1.1456
18774THY    HP359812   6.952   7.720   4.399 -0.4028  2.1729 -1.0307
18774THY    HP459813   6.803   7.684   4.324 -0.5910  0.9991 -1.2178
18774THY    CP359814   6.811   7.420   4.268 -0.2462 -0.0794  0.0957
18774THY    HP559815   6.708   7.440   4.300 -1.1613 -1.3092 -2.2987
18774THY    HP659816   6.818   7.311   4.270 -2.9801 -0.1177 -0.1518
18774THY    HP759817   6.817   7.450   4.163 -0.3680  0.6848  3.0899
18774THY    CA359818   6.767   7.464   4.565  0.4386  0.5031  0.2034
18774THY    HA359819   6.677   7.464   4.505  0.2528  0.7781 -0.0234
18774THY    CA459820   6.758   7.454   4.708  0.0941  0.3898 -0.3236
18774THY    HA459821   6.659   7.446   4.752 -0.7380 -1.2782  0.3505
18774THY    CA559822   6.871   7.473   4.785 -0.0744 -0.2588  0.0772
18774THY    CM159823   6.865   7.460   4.938 -0.2550  0.5745 -0.6243
18774THY    HM159824   6.803   7.380   4.981 -1.3963  0.3318  0.1099
18774THY    HM259825   6.841   7.555   4.985 -0.0366 -1.2095  0.3549
18774THY    HM359826   6.966   7.440   4.977  0.6361 -0.0459  2.2698
18774THY    CA659827   6.996   7.483   4.728  0.1973  0.4065 -0.2308
18774THY    HA659828   7.080   7.467   4.794  1.5774 -0.8669  1.2763
18775THY      O59829   7.892   3.748   5.337  0.0872  0.3306  0.4764
18775THY     HO59830   7.982   3.733   5.370  1.3688 -2.8736  0.3498
18775THY    CA159831   7.815   3.669   5.411 -0.0706  0.9346  0.0161
18775THY    CA259832   7.679   3.655   5.371 -0.1024  0.4613  0.0365
18775THY    CP159833   7.624   3.732   5.251 -0.3269  0.4600  0.1817
18775THY    HP159834   7.709   3.764   5.190 -0.0016  0.1923 -1.1381
18775THY    CP259835   7.527   3.848   5.289  0.1327  0.0918  0.5847
18775THY    HP259836   7.565   3.903   5.376 -0.7671  1.3237 -0.6697
18775THY    HP359837   7.432   3.809   5.328  1.7944  3.4250 -0.5656
18775THY    HP459838   7.502   3.915   5.206 -0.8361 -0.2423 -0.1670
18775THY    CP359839   7.557   3.637   5.145  0.1981  0.4774 -0.6680
18775THY    HP559840   7.635   3.573   5.103 -0.8109 -1.7637 -0.5158
18775THY    HP659841   7.516   3.697   5.064 -0.3884  3.2867  3.1262
18775THY    HP759842   7.480   3.571   5.186 -0.4585 -0.5403 -0.5433
18775THY    CA359843   7.596   3.579   5.453  0.1499 -0.0303  0.1550
18775THY    HA359844   7.489   3.570   5.436  0.1432  0.6252 -1.2793
18775THY    CA459845   7.649   3.532   5.571  0.1536 -0.1899  0.4697
18775THY    HA459846   7.589   3.465   5.632  1.1357  0.6866  0.3475
18775THY    CA559847   7.784   3.550   5.608 -0.3833 -0.2340 -0.2623
18775THY    CM159848   7.835   3.469   5.731  0.5468 -0.3207 -0.1579
18775THY    HM159849   7.864   3.366   5.708 -3.9214  3.4733 -2.6503
18775THY    HM259850   7.765   3.472   5.815 -0.4396 -1.0110 -2.1997
18775THY    HM359851   7.921   3.529   5.765 -0.2655 -0.5661  1.1908
18775THY    CA659852   7.867   3.621   5.532 -0.1035 -0.0734 -0.0071
18775THY    HA659853   7.973   3.633   5.555 -0.1173 -0.8812  2.2262
18776THY      O59854   9.153   7.789   7.392 -0.4367 -0.1988 -0.0105
18776THY     HO59855   9.181   7.728   7.462  0.2518 -1.1737 -0.8503
18776THY    CA159856   9.105   7.900   7.448  0.0369 -0.3301 -0.3685
18776THY    CA259857   8.997   7.962   7.385 -0.5276 -0.2774 -0.1133
18776THY    CP159858   8.927   7.882   7.268 -0.4048 -0.2429 -0.4476
18776THY    HP159859   8.967   7.780   7.260  0.1917  0.8572 -0.3162
18776THY    CP259860   8.948   7.956   7.137 -0.4766 -0.0179 -0.0049
18776THY    HP259861   9.056   7.970   7.119 -0.5728  0.9529  2.3430
18776THY    HP359862   8.898   8.053   7.140 -0.6274 -2.2149  0.0432
18776THY    HP459863   8.902   7.902   7.053 -0.9906 -1.1435  2.0670
18776THY    CP359864   8.778   7.856   7.286  0.0591 -0.2893  0.2064
18776THY    HP559865   8.738   7.832   7.187  0.1346 -0.5688  1.1789
18776THY    HP659866   8.715   7.940   7.317 -1.9454  0.0261 -1.3279
18776THY    HP759867   8.766   7.771   7.354 -1.1750 -1.4665 -0.6035
18776THY    CA359868   8.952   8.085   7.434  0.0974  0.0422 -0.9884
18776THY    HA359869   8.878   8.134   7.371 -0.9376  1.6716 -0.3860
18776THY    CA459870   9.005   8.146   7.550 -0.7870  0.5415  0.9265
18776THY    HA459871   8.960   8.239   7.582 -2.9972  1.6041 -0.4297
18776THY    CA559872   9.099   8.071   7.621 -0.0358  0.7463 -0.0671
18776THY    CM159873   9.160   8.123   7.749  0.0096  0.1017  0.2883
18776THY    HM159874   9.097   8.203   7.789 -1.5350  0.1461 -0.9139
18776THY    HM259875   9.256   8.174   7.731 -0.6798  0.8420  1.9018
18776THY    HM359876   9.151   8.047   7.827  0.0914 -0.1266  0.0411
18776THY    CA659877   9.157   7.955   7.565  0.6463 -0.2799  0.1528
18776THY    HA659878   9.246   7.911   7.609 -0.1317  2.7750  1.3816
18777THY      O59879   7.572   1.261   2.539  0.0232  0.1818 -0.0402
18777THY     HO59880   7.539   1.349   2.515  0.0902 -0.5554 -0.2134
18777THY    CA159881   7.702   1.256   2.505 -0.2601 -0.7440  0.4398
18777THY    CA259882   7.767   1.134   2.492 -0.4439 -0.3250  0.1754
18777THY    CP159883   7.696   0.999   2.508 -0.3123  0.2017 -0.6808
18777THY    HP159884   7.589   1.017   2.517 -0.1308  0.7531  0.1873
18777THY    CP259885   7.741   0.913   2.635 -0.0380 -0.5367 -0.1637
18777THY    HP259886   7.713   0.809   2.618  0.6679 -2.6261 -0.0738
18777THY    HP359887   7.706   0.961   2.727  0.7374 -0.4485  0.2464
18777THY    HP459888   7.849   0.898   2.638 -0.3288  0.5217 -2.4187
18777THY    CP359889   7.714   0.912   2.379  0.4750  0.4292  0.8829
18777THY    HP559890   7.794   0.839   2.392 -1.5524  1.4519 -1.3312
18777THY    HP659891   7.745   0.983   2.302  0.6065  1.8214  2.3959
18777THY    HP759892   7.616   0.867   2.358 -0.6399  2.3108  2.2848
18777THY    CA359893   7.909   1.137   2.462  0.1021  0.0877  0.0452
18777THY    HA359894   7.965   1.045   2.443  2.7847  1.5895  1.2571
18777THY    CA459895   7.977   1.254   2.457  0.9959  0.2642 -0.7487
18777THY    HA459896   8.080   1.257   2.421  0.4106 -1.6901 -1.8453
18777THY    CA559897   7.905   1.372   2.476  0.0662  1.2487 -0.3395
18777THY    CM159898   7.980   1.506   2.459  0.6929  0.1000 -0.0533
18777THY    HM159899   7.929   1.593   2.503  0.8781  0.5269 -0.1560
18777THY    HM259900   7.992   1.523   2.351 -3.0065 -0.1595  1.9624
18777THY    HM359901   8.084   1.508   2.496  0.4966  0.6465  0.1587
18777THY    CA659902   7.768   1.370   2.489  0.1501 -0.1319 -0.1168
18777THY    HA659903   7.729   1.471   2.494  1.7834 -2.8427  0.7385
18778THY      O59904   2.782   7.385   6.137  0.3387 -0.0658  0.5387
18778THY     HO59905   2.824   7.299   6.121 -1.2571  1.5620 -0.6101
18778THY    CA159906   2.715   7.441   6.036  0.4343  0.7950 -0.0820
18778THY    CA259907   2.618   7.543   6.049 -0.3869 -0.4565 -0.1711
18778THY    CP159908   2.594   7.588   6.194  0.4934  0.3025  0.2259
18778THY    HP159909   2.639   7.514   6.262  0.4389  0.7630  0.6159
18778THY    CP259910   2.446   7.603   6.232 -0.6544  0.5836 -0.1321
18778THY    HP259911   2.433   7.631   6.337  2.4631  1.1582 -0.4905
18778THY    HP359912   2.393   7.508   6.218 -1.0254 -0.8318  0.2599
18778THY    HP459913   2.394   7.668   6.161  0.3005  1.9677  2.2458
18778THY    CP359914   2.664   7.725   6.226 -0.0326  0.1086 -0.2249
18778THY    HP559915   2.628   7.787   6.143  0.1610 -0.7499 -1.2383
18778THY    HP659916   2.773   7.727   6.216  0.1546  1.7583  2.2006
18778THY    HP759917   2.637   7.763   6.326 -1.0377 -0.0432 -0.4977
18778THY    CA359918   2.546   7.597   5.941  0.3015 -0.5616 -0.6052
18778THY    HA359919   2.477   7.677   5.966  2.1401  2.2797  0.2453
18778THY    CA459920   2.571   7.542   5.814 -0.2069  0.3564 -0.6144
18778THY    HA459921   2.518   7.587   5.730 -2.6447  2.1940  0.1522
18778THY    CA559922   2.667   7.442   5.800 -0.0755  0.3857  0.3713
18778THY    CM159923   2.733   7.423   5.665 -0.3872  0.4812  0.4707
18778THY    HM159924   2.761   7.319   5.644  0.0050 -0.5304  0.7643
18778THY    HM259925   2.832   7.468   5.675  0.8607 -1.4459 -1.6015
18778THY    HM359926   2.668   7.452   5.582 -0.6854  0.7957  0.7034
18778THY    CA659927   2.732   7.383   5.911  0.0800  0.1452 -0.0428
18778THY    HA659928   2.808   7.309   5.891  0.4135 -1.5850  0.7370
18779THY      O59929   1.610   1.442   7.290  0.1400 -0.0737 -0.3334
18779THY     HO59930   1.684   1.481   7.242 -0.0280  2.1906  3.1968
18779THY    CA159931   1.594   1.519   7.401 -0.3653 -0.2889 -0.1148
18779THY    CA259932   1.466   1.516   7.459 -0.3787 -0.0450 -0.3143
18779THY    CP159933   1.348   1.434   7.409 -0.8119 -0.5402 -0.2056
18779THY    HP159934   1.381   1.372   7.325 -0.4139  1.2124 -2.5400
18779THY    CP259935   1.236   1.531   7.362 -0.4842 -0.0088  0.6048
18779THY    HP259936   1.278   1.606   7.293  1.3799 -0.9946 -1.2452
18779THY    HP359937   1.193   1.584   7.448 -0.6058  1.0218 -1.1237
18779THY    HP459938   1.157   1.473   7.313 -2.2151 -2.0676  4.2783
18779THY    CP359939   1.288   1.325   7.494 -0.3400  0.4918  0.5554
18779THY    HP559940   1.278   1.359   7.598  1.0728  0.3357  1.5153
18779THY    HP659941   1.363   1.245   7.497 -2.6319  1.5928 -1.7554
18779THY    HP759942   1.204   1.282   7.438  0.2391  1.0451 -1.4349
18779THY    CA359943   1.452   1.606   7.571 -0.9155  0.0524  0.1693
18779THY    HA359944   1.354   1.623   7.615 -0.6985  0.9579 -0.8235
18779THY    CA459945   1.554   1.686   7.623 -0.7152 -0.1691 -0.3318
18779THY    HA459946   1.525   1.759   7.697 -2.2023 -1.1945  0.1506
18779THY    CA559947   1.678   1.680   7.562 -0.3754  0.2995  0.2070
18779THY    CM159948   1.796   1.765   7.602  0.1859 -0.5383 -0.2478
18779THY    HM159949   1.807   1.849   7.533 -2.4535  0.2435  0.8481
18779THY    HM259950   1.891   1.709   7.603  0.3723  0.2535  0.0671
18779THY    HM359951   1.792   1.796   7.707 -0.0790 -0.0719 -1.7839
18779THY    CA659952   1.703   1.602   7.448 -0.5504 -0.3415  0.4220
18779THY    HA659953   1.799   1.607   7.398  1.0557  2.4905  0.0969
18780THY      O59954   4.035   2.810   4.958 -0.4093  0.1539  0.0666
18780THY     HO59955   4.045   2.864   5.038  2.1120 -0.5599  0.8094
18780THY    CA159956   4.056   2.884   4.842  0.1257 -0.7213 -0.4257
18780THY    CA259957   4.128   2.828   4.736 -0.1261  0.4517 -0.5502
18780THY    CP159958   4.204   2.691   4.753 -0.4112 -0.5017 -0.1705
18780THY    HP159959   4.142   2.627   4.817 -0.1335 -1.5942 -1.5618
18780THY    CP259960   4.346   2.726   4.802  0.2315  0.7885 -0.1186
18780THY    HP259961   4.402   2.778   4.724 -2.8964 -0.6409  1.3734
18780THY    HP359962   4.401   2.634   4.824 -0.5170  0.1100 -0.7423
18780THY    HP459963   4.344   2.786   4.894 -0.5732  0.1199  0.9074
18780THY    CP359964   4.229   2.621   4.621  0.6591 -0.7784  0.0123
18780THY    HP559965   4.265   2.518   4.636  2.3283  0.1345  0.7026
18780THY    HP659966   4.301   2.678   4.562 -0.9167 -2.3606  0.4893
18780THY    HP759967   4.139   2.630   4.558  1.6678 -2.2540  0.1955
18780THY    CA359968   4.161   2.913   4.624  0.2319 -0.1643  0.4237
18780THY    HA359969   4.235   2.889   4.547  0.0043 -0.3954  0.4633
18780THY    CA459970   4.091   3.032   4.618  0.2190 -0.3003 -0.3343
18780THY    HA459971   4.094   3.093   4.527  0.2802 -0.7561 -1.0043
18780THY    CA559972   4.019   3.085   4.729 -0.0635  0.1502 -0.4432
18780THY    CM159973   3.944   3.212   4.724 -0.2739 -0.2961 -0.0162
18780THY    HM159974   3.845   3.189   4.683 -0.3601  0.3650 -0.8834
18780THY    HM259975   4.000   3.294   4.677  1.2892  1.1441 -0.1874
18780THY    HM359976   3.926   3.256   4.823  2.0536  0.3011 -0.2958
18780THY    CA659977   4.013   3.017   4.845  0.0401 -0.4261  0.0972
18780THY    HA659978   3.968   3.063   4.933 -0.3307 -0.0740 -0.9043
18781THY      O59979   2.716   4.895   7.454 -0.6350  0.5323 -0.3238
18781THY     HO59980   2.809   4.866   7.452 -0.6995  0.0549 -0.5144
18781THY    CA159981   2.695   4.954   7.331  0.5854 -0.3872 -0.2976
18781THY    CA259982   2.564   4.961   7.280 -0.5484  0.8846 -0.0963
18781THY    CP159983   2.445   4.892   7.352 -0.3657  0.0716 -0.3473
18781THY    HP159984   2.474   4.848   7.449 -0.7163  0.0202 -0.6943
18781THY    CP259985   2.391   4.773   7.267 -0.0110 -1.3019 -0.4645
18781THY    HP259986   2.471   4.699   7.265 -1.2486 -2.1097 -1.8368
18781THY    HP359987   2.375   4.803   7.163 -1.0311 -1.5473 -1.7903
18781THY    HP459988   2.295   4.731   7.301 -0.2623 -0.9456  0.3815
18781THY    CP359989   2.332   4.998   7.373 -0.2897 -0.0502 -0.2937
18781THY    HP559990   2.258   4.968   7.448 -2.3331 -0.7053  2.7103
18781THY    HP659991   2.274   5.022   7.283 -0.5549  0.2201  0.0921
18781THY    HP759992   2.386   5.085   7.411 -0.2874  0.5904 -0.5671
18781THY    CA359993   2.551   5.025   7.155  0.1905 -0.1991 -0.0937
18781THY    HA359994   2.453   5.038   7.110 -0.2122  1.0981  1.8239
18781THY    CA459995   2.654   5.082   7.088 -0.3206  0.5174 -0.7909
18781THY    HA459996   2.646   5.138   6.995 -1.0839  0.7703 -0.4680
18781THY    CA559997   2.778   5.076   7.146 -0.5308  0.0517 -0.0573
18781THY    CM159998   2.887   5.136   7.074  0.0124 -0.1737  0.0001
18781THY    HM159999   2.955   5.177   7.150  0.5368  0.4420 -1.8654
18781THY    HM260000   2.840   5.219   7.020  0.8732 -2.2879 -0.8070
18781THY    HM360001   2.942   5.075   7.001  0.5344 -0.3799  0.6973
18781THY    CA660002   2.802   5.011   7.272  0.0705  0.0197  0.6821
18781THY    HA660003   2.900   5.012   7.318 -0.3343  0.9189  1.6133
18782THY      O60004   9.068   1.294   6.797 -0.0567  0.0343  0.6454
18782THY     HO60005   9.136   1.239   6.756 -0.3565  2.0161 -1.3259
18782THY    CA160006   8.951   1.222   6.781  0.2219  0.4805 -0.2404
18782THY    CA260007   8.938   1.094   6.836  0.5242 -0.6087  0.6393
18782THY    CP160008   9.031   1.046   6.943  0.2524 -0.3134 -0.4328
18782THY    HP160009   9.117   1.114   6.945  1.0721 -1.0538 -1.4167
18782THY    CP260010   9.083   0.909   6.903  0.0191  0.0688  0.4188
18782THY    HP260011   9.001   0.839   6.920 -0.9487 -1.1996  1.1991
18782THY    HP360012   9.161   0.891   6.978 -1.3327  1.5899  0.5792
18782THY    HP460013   9.105   0.906   6.796  0.8564  0.2502 -0.4542
18782THY    CP360014   8.965   1.057   7.084  0.7405  0.5253  0.3389
18782THY    HP560015   8.937   1.161   7.103 -2.8664 -1.1603 -0.1870
18782THY    HP660016   9.032   1.027   7.165 -0.2521  1.6858  1.1400
18782THY    HP760017   8.889   0.983   7.109 -1.1363 -1.0999  1.6076
18782THY    CA360018   8.829   1.010   6.801  0.4277 -0.5205 -0.0706
18782THY    HA360019   8.803   0.917   6.852 -0.3612 -1.1533 -0.2071
18782THY    CA460020   8.738   1.064   6.704 -0.5067 -0.0937  0.2412
18782THY    HA460021   8.656   0.996   6.687 -0.5722  2.0406 -0.3015
18782THY    CA560022   8.756   1.184   6.646 -0.0029 -0.7025 -0.4333
18782THY    CM160023   8.683   1.228   6.526  0.1304 -0.3935  0.3804
18782THY    HM160024   8.587   1.174   6.519  0.1777 -1.9886  0.4669
18782THY    HM260025   8.736   1.192   6.438  0.0642 -0.3931  0.2797
18782THY    HM360026   8.682   1.337   6.533 -1.7472  0.0473  0.3742
18782THY    CA660027   8.860   1.263   6.685 -0.6924  0.6071 -0.4410
18782THY    HA660028   8.874   1.354   6.627  0.9083 -1.4886 -1.9403
18783THY      O60029   3.644   7.011   3.168  0.1666  0.4434  0.1867
18783THY     HO60030   3.713   6.979   3.108  0.0746 -0.5194  1.6951
18783THY    CA160031   3.577   7.092   3.084 -0.3233  0.2953 -0.2968
18783THY    CA260032   3.445   7.137   3.110 -0.1591  0.5096  0.5169
18783THY    CP160033   3.368   7.091   3.235  0.5380 -0.7763  0.1194
18783THY    HP160034   3.422   7.023   3.303  1.4617 -0.0358  1.5373
18783THY    CP260035   3.245   7.005   3.195 -0.3297  0.1049  0.2177
18783THY    HP260036   3.182   7.074   3.138  0.9328  1.4454  2.6168
18783THY    HP360037   3.187   6.971   3.281  0.5810 -0.1511 -2.1469
18783THY    HP460038   3.267   6.915   3.136 -2.0846 -0.2777  0.0097
18783THY    CP360039   3.330   7.220   3.313  1.0734 -0.2498 -0.6882
18783THY    HP560040   3.266   7.286   3.255  0.6466  2.7121  1.7394
18783THY    HP660041   3.427   7.272   3.318 -0.7958 -1.4356  3.2676
18783THY    HP760042   3.287   7.201   3.412 -1.5174 -0.8520  1.4432
18783THY    CA360043   3.376   7.216   3.016 -1.0966 -0.3096 -0.0378
18783THY    HA360044   3.274   7.243   3.038 -0.6510  1.4875  0.3174
18783THY    CA460045   3.442   7.263   2.905  0.1445 -0.1790  0.0165
18783THY    HA460046   3.400   7.334   2.834 -0.7596 -0.9605 -1.2579
18783THY    CA560047   3.575   7.221   2.883  0.4777  0.0800 -1.3009
18783THY    CM160048   3.648   7.273   2.761 -0.0288 -0.3572  0.1908
18783THY    HM160049   3.577   7.268   2.678 -2.0100  1.3102 -0.9519
18783THY    HM260050   3.731   7.204   2.743  0.3976  0.5947  0.4256
18783THY    HM360051   3.681   7.377   2.775  0.9227  2.0674 -0.3648
18783THY    CA660052   3.638   7.137   2.968 -0.3762 -1.0643  0.2436
18783THY    HA660053   3.738   7.101   2.944  0.6485  0.2605  1.9960
18784THY      O60054   8.942   7.078   6.277  0.1613  0.3891  0.3973
18784THY     HO60055   9.021   7.048   6.228 -0.5532 -1.3738  1.2189
18784THY    CA160056   8.952   7.001   6.380  0.5389 -0.1895 -0.3687
18784THY    CA260057   8.865   7.006   6.487  1.1872  0.1097  0.4899
18784THY    CP160058   8.736   7.083   6.476  0.3572 -0.0323  0.0480
18784THY    HP160059   8.736   7.156   6.395 -0.4825  0.7366  0.9237
18784THY    CP260060   8.716   7.178   6.592 -0.4051 -0.3688  0.3667
18784THY    HP260061   8.639   7.253   6.572  0.3339  0.7918  1.4794
18784THY    HP360062   8.804   7.230   6.632 -1.5213  1.9290  0.6585
18784THY    HP460063   8.681   7.121   6.679  0.9170 -0.9079 -1.3488
18784THY    CP360064   8.612   6.992   6.461  0.5296 -0.0288  0.2321
18784THY    HP560065   8.608   6.917   6.541 -0.4152 -0.3821 -0.1080
18784THY    HP660066   8.605   6.942   6.364  3.0115 -1.7706  2.9528
18784THY    HP760067   8.526   7.061   6.466  1.1180 -1.0759  1.0744
18784THY    CA360068   8.884   6.914   6.595  0.0284  0.4407 -0.0278
18784THY    HA360069   8.807   6.895   6.669  0.4669  0.2854 -2.9707
18784THY    CA460070   9.000   6.840   6.599  1.0527 -0.1589 -0.7975
18784THY    HA460071   9.014   6.778   6.687  1.8238 -0.2075 -0.6985
18784THY    CA560072   9.088   6.840   6.494 -0.0822 -1.1672  0.5117
18784THY    CM160073   9.204   6.748   6.508 -0.4074 -0.4892  0.2717
18784THY    HM160074   9.233   6.699   6.414 -0.0971 -0.4963  0.4665
18784THY    HM260075   9.172   6.667   6.574  1.1852  0.6572  0.5256
18784THY    HM360076   9.294   6.792   6.553  0.1802 -1.2396 -0.1436
18784THY    CA660077   9.059   6.909   6.382  1.0166  0.9550 -0.1604
18784THY    HA660078   9.122   6.898   6.294  1.1773  1.0397  0.0628
18785THY      O60079   7.664   3.463   2.198 -0.2297 -0.1684  0.0800
18785THY     HO60080   7.632   3.481   2.288 -1.0186 -0.0125 -1.7651
18785THY    CA160081   7.790   3.433   2.178 -0.9977 -0.0900 -0.1724
18785THY    CA260082   7.854   3.406   2.045  0.7267 -0.5136  0.5406
18785THY    CP160083   7.754   3.380   1.924 -0.7384 -0.0821  0.2119
18785THY    HP160084   7.681   3.460   1.942 -0.9346  0.8127 -0.1590
18785THY    CP260085   7.668   3.255   1.938  0.1028  0.2399  0.3398
18785THY    HP260086   7.616   3.253   2.035 -1.5365 -0.6174 -0.0450
18785THY    HP360087   7.723   3.162   1.922  0.6397  1.6164  0.3900
18785THY    HP460088   7.587   3.258   1.864 -1.2874  1.7055  0.6875
18785THY    CP360089   7.804   3.394   1.776  0.5829 -0.8698  0.2621
18785THY    HP560090   7.719   3.375   1.710 -0.1891 -0.6524  2.6073
18785THY    HP660091   7.890   3.327   1.761  0.1114  0.9117 -0.8025
18785THY    HP760092   7.827   3.500   1.760  1.1329  0.8169  0.4272
18785THY    CA360093   7.991   3.413   2.025 -0.8355  0.0252 -0.6931
18785THY    HA360094   8.036   3.405   1.927 -1.1858 -0.1510 -0.5259
18785THY    CA460095   8.070   3.441   2.137 -0.3745 -0.1095  1.1445
18785THY    HA460096   8.177   3.442   2.118 -0.0656  0.6228 -2.8644
18785THY    CA560097   8.016   3.455   2.261 -0.0997 -0.3942  0.2742
18785THY    CM160098   8.101   3.489   2.376  0.1461 -0.2503  0.0374
18785THY    HM160099   8.182   3.416   2.388  0.0565  1.6016  0.1855
18785THY    HM260100   8.057   3.484   2.476  2.6122  0.9306 -0.0233
18785THY    HM360101   8.140   3.591   2.373 -0.3682  0.8592  0.2740
18785THY    CA660102   7.877   3.450   2.283 -1.5972 -0.0746  0.0416
18785THY    HA660103   7.840   3.466   2.384  1.7524  1.5450 -1.3352
18786THY      O60104   5.107   3.800   4.058  0.1191  0.0318  0.6751
18786THY     HO60105   5.117   3.871   4.123 -0.0427 -0.1696  0.8805
18786THY    CA160106   4.975   3.787   4.041 -0.1032 -0.3706  0.2631
18786THY    CA260107   4.914   3.781   3.911  0.3407  0.1766  0.1049
18786THY    CP160108   4.992   3.758   3.777  0.2551  0.8092  0.0795
18786THY    HP160109   5.093   3.791   3.803  1.6266 -2.3954 -1.2229
18786THY    CP260110   4.931   3.855   3.677  0.9290  0.0785  0.2884
18786THY    HP260111   4.903   3.953   3.719  2.0060  0.3672  0.4886
18786THY    HP360112   4.839   3.805   3.648  1.4299  0.0736 -0.6525
18786THY    HP460113   5.000   3.865   3.592  0.9208 -0.1081 -1.0873
18786THY    CP360114   4.989   3.616   3.729  0.3081  0.3419  0.6634
18786THY    HP560115   5.034   3.552   3.805  1.3442  1.5733  2.7361
18786THY    HP660116   5.046   3.602   3.636  0.5838  0.2300  2.3209
18786THY    HP760117   4.885   3.583   3.717  0.7831 -0.9572 -0.4641
18786THY    CA360118   4.767   3.773   3.913  0.3496  0.4034  0.4039
18786THY    HA360119   4.724   3.762   3.814 -0.0512  0.4875  1.1466
18786THY    CA460120   4.690   3.763   4.033 -0.5642 -0.2149 -0.0254
18786THY    HA460121   4.582   3.771   4.019 -0.6352  1.1627  1.9068
18786THY    CA560122   4.759   3.766   4.157 -0.8524 -0.0816  0.5183
18786THY    CM160123   4.675   3.742   4.279  0.6319  0.1663 -0.1505
18786THY    HM160124   4.629   3.826   4.332 -2.1684  2.9851 -3.1349
18786THY    HM260125   4.740   3.687   4.348 -0.3318  0.5256 -0.8700
18786THY    HM360126   4.593   3.674   4.251  0.3175  0.6974  0.0051
18786THY    CA660127   4.902   3.778   4.163 -0.0003  0.5174  0.6933
18786THY    HA660128   4.945   3.795   4.261  0.5325  0.1037  1.8180
18787THY      O60129   0.900   4.184   5.441  0.0609  0.0956 -0.2388
18787THY     HO60130   0.916   4.091   5.416  0.5542 -0.0308 -0.1254
18787THY    CA160131   0.849   4.173   5.564  0.3753  0.4056  0.1433
18787THY    CA260132   0.816   4.287   5.640 -0.2118  0.0900 -0.2556
18787THY    CP160133   0.833   4.435   5.590  0.7335  0.4543  0.2935
18787THY    HP160134   0.910   4.426   5.513  1.6972  1.3863  0.3305
18787THY    CP260135   0.874   4.534   5.689 -0.6913 -0.0119 -0.0998
18787THY    HP260136   0.915   4.625   5.646 -1.2462  2.4591  1.4122
18787THY    HP360137   0.957   4.492   5.747  0.9651 -2.3120 -0.1124
18787THY    HP460138   0.786   4.564   5.749 -0.1170  0.4859  0.6238
18787THY    CP360139   0.696   4.482   5.540 -0.8507  0.3128  0.6045
18787THY    HP560140   0.667   4.411   5.462  1.2078  0.0641 -0.0257
18787THY    HP660141   0.706   4.582   5.494 -2.0137 -0.1787  0.5154
18787THY    HP760142   0.618   4.482   5.617 -0.2451  0.9320  1.2030
18787THY    CA360143   0.758   4.265   5.773  0.6934  0.4168 -0.3325
18787THY    HA360144   0.724   4.356   5.820 -1.1850  0.0899 -0.8226
18787THY    CA460145   0.728   4.133   5.818  0.4007  0.7345  0.1618
18787THY    HA460146   0.671   4.120   5.909 -3.6460 -1.4245  1.2927
18787THY    CA560147   0.760   4.021   5.739  0.9752 -0.2512 -0.3744
18787THY    CM160148   0.722   3.881   5.788  0.3333 -0.1103  0.1913
18787THY    HM160149   0.810   3.818   5.771  0.2824  1.6146 -0.4074
18787THY    HM260150   0.635   3.829   5.748  0.8677  0.2044 -0.9908
18787THY    HM360151   0.706   3.885   5.897  2.3191  0.2655 -0.5326
18787THY    CA660152   0.814   4.047   5.613 -0.1695  0.7052  0.1338
18787THY    HA660153   0.827   3.960   5.549 -3.2484 -0.0768  0.1411
18788THY      O60154   6.092   2.237   4.000  0.4735  0.1051  0.8141
18788THY     HO60155   6.106   2.145   4.029 -0.6844 -1.5512  0.0705
18788THY    CA160156   6.211   2.284   3.958 -0.3495 -0.1270 -0.1080
18788THY    CA260157   6.249   2.419   3.966  0.9639  0.2408  1.2500
18788THY    CP160158   6.140   2.515   4.000 -0.1565 -0.6873 -0.3928
18788THY    HP160159   6.040   2.470   3.999 -0.9024  0.7904  1.1126
18788THY    CP260160   6.138   2.630   3.896 -1.2036  0.5976 -0.6708
18788THY    HP260161   6.084   2.720   3.929  0.8044  1.3690  0.3119
18788THY    HP360162   6.086   2.594   3.807 -2.0137  0.9991 -0.5101
18788THY    HP460163   6.240   2.670   3.885 -1.9290  2.1759  1.9097
18788THY    CP360164   6.166   2.569   4.146  0.2264 -0.7333  0.4295
18788THY    HP560165   6.137   2.494   4.221  1.5284 -0.5432  0.0866
18788THY    HP660166   6.110   2.661   4.163 -0.2484  0.5034 -0.0666
18788THY    HP760167   6.274   2.581   4.162  0.0228  0.6424  0.5757
18788THY    CA360168   6.381   2.449   3.924 -0.4298  0.1177 -0.8799
18788THY    HA360169   6.408   2.554   3.921 -0.5273  2.9604 -0.6985
18788THY    CA460170   6.468   2.355   3.877 -0.0939 -0.6130 -0.5052
18788THY    HA460171   6.567   2.382   3.842 -0.5894 -0.2962  1.9433
18788THY    CA560172   6.425   2.224   3.869 -0.4637 -0.7517  0.5291
18788THY    CM160173   6.506   2.113   3.807 -0.0821  0.1293  0.5695
18788THY    HM160174   6.506   2.030   3.878  0.5083  0.0618  0.5055
18788THY    HM260175   6.612   2.129   3.782 -0.2893 -0.7638  0.6144
18788THY    HM360176   6.452   2.072   3.721  1.2933 -0.1615 -0.7196
18788THY    CA660177   6.296   2.195   3.908  0.0135 -0.0490 -0.9536
18788THY    HA660178   6.261   2.092   3.901  0.3601 -2.9110 -0.9623
18789THY      O60179   7.670   8.419   2.762 -0.1251 -0.0989 -0.3124
18789THY     HO60180   7.616   8.369   2.825 -0.8344  0.3499  0.9779
18789THY    CA160181   7.755   8.326   2.714  0.9266 -0.2926 -0.3776
18789THY    CA260182   7.876   8.357   2.656  0.0102 -0.6633  0.2533
18789THY    CP160183   7.900   8.503   2.611 -0.3970  0.6448  0.2808
18789THY    HP160184   7.827   8.577   2.643  1.1364 -0.2084  2.2704
18789THY    CP260185   7.896   8.514   2.456 -0.8957  0.4075  0.0490
18789THY    HP260186   7.805   8.471   2.413 -0.3000 -0.5861 -0.2586
18789THY    HP360187   7.980   8.467   2.403 -1.4999 -1.3847  0.9307
18789THY    HP460188   7.908   8.619   2.427 -1.4332  1.3402  0.3777
18789THY    CP360189   8.032   8.567   2.656  0.1561 -0.5715  0.2600
18789THY    HP560190   8.024   8.582   2.764 -0.3706 -0.5675 -0.0075
18789THY    HP660191   8.045   8.667   2.615  0.3034  1.0215  0.9262
18789THY    HP760192   8.125   8.512   2.640 -0.7719  0.2477 -1.6560
18789THY    CA360193   7.976   8.257   2.632 -0.0303 -0.1200 -0.3233
18789THY    HA360194   8.071   8.273   2.582 -0.7551 -1.2582  0.6230
18789THY    CA460195   7.936   8.122   2.653  0.0192  0.1090 -0.0964
18789THY    HA460196   8.000   8.038   2.624  2.5673  3.6012  0.4184
18789THY    CA560197   7.812   8.086   2.712  0.1390 -0.0428 -0.2797
18789THY    CM160198   7.758   7.949   2.723 -0.5950 -0.6563  0.0813
18789THY    HM160199   7.710   7.917   2.630  0.3871 -1.2717  0.3690
18789THY    HM260200   7.695   7.949   2.813 -0.1389 -0.2610  2.4829
18789THY    HM360201   7.845   7.884   2.735 -0.3147  0.4245  0.6263
18789THY    CA660202   7.727   8.197   2.749  0.1595 -0.5734  0.6285
18789THY    HA660203   7.629   8.175   2.791 -0.5092 -2.1577  0.4256
18790THY      O60204   7.155   1.486   5.664 -0.1527 -0.2656 -0.1419
18790THY     HO60205   7.168   1.461   5.757 -0.8994  0.1649  0.9891
18790THY    CA160206   7.232   1.595   5.629 -0.1236  0.4713 -0.5896
18790THY    CA260207   7.267   1.629   5.495 -0.2416  0.1389 -0.1047
18790THY    CP160208   7.202   1.538   5.386  0.1944 -0.3446  0.0407
18790THY    HP160209   7.117   1.487   5.434  0.0116  2.4577  2.7040
18790THY    CP260210   7.309   1.443   5.330 -0.0990 -0.0086 -0.0849
18790THY    HP260211   7.275   1.374   5.253  0.1233  1.7191 -2.2372
18790THY    HP360212   7.360   1.384   5.407  0.9730  0.8419  1.8658
18790THY    HP460213   7.394   1.501   5.291 -1.6760 -2.2650  0.8575
18790THY    CP360214   7.140   1.612   5.265  0.3994 -0.0047 -0.0778
18790THY    HP560215   7.032   1.605   5.248  0.6240 -2.5139  1.0956
18790THY    HP660216   7.190   1.572   5.176  0.6871  0.6659 -1.2391
18790THY    HP760217   7.172   1.717   5.267  1.9650 -2.4847 -0.4115
18790THY    CA360218   7.356   1.737   5.469 -0.6397  0.0324 -0.0979
18790THY    HA360219   7.387   1.759   5.367  0.3350  0.3937  0.2341
18790THY    CA460220   7.418   1.800   5.573 -0.1968 -0.0156 -0.5267
18790THY    HA460221   7.473   1.890   5.546  1.4810  0.4023 -1.3756
18790THY    CA560222   7.378   1.775   5.703  0.6362  0.5971  0.3281
18790THY    CM160223   7.418   1.866   5.812  0.0329  0.1177  0.5856
18790THY    HM160224   7.381   1.969   5.802 -0.2387  1.2573  0.6025
18790THY    HM260225   7.527   1.878   5.822  0.0633  1.4588 -0.5873
18790THY    HM360226   7.380   1.838   5.910 -3.7225 -1.4377 -0.3801
18790THY    CA660227   7.284   1.678   5.733  0.6466  0.1742 -0.2544
18790THY    HA660228   7.272   1.653   5.838 -0.3795  0.3358  0.8621
18791THY      O60229   7.688   8.604   1.668  0.1832  0.2065  0.9986
18791THY     HO60230   7.767   8.551   1.688  1.0489  0.3930  2.3395
18791THY    CA160231   7.678   8.701   1.764 -0.4138  0.3663 -0.3202
18791THY    CA260232   7.578   8.799   1.762  0.5821 -0.1655 -0.4466
18791THY    CP160233   7.459   8.812   1.657 -0.4309 -0.6928  1.2022
18791THY    HP160234   7.478   8.730   1.586 -2.5367  0.5830 -0.5253
18791THY    CP260235   7.443   8.943   1.583  0.5957  0.1941  0.1887
18791THY    HP260236   7.395   9.020   1.645  0.0328  1.3707 -1.0619
18791THY    HP360237   7.378   8.929   1.496 -0.3761  0.8427  0.4978
18791THY    HP460238   7.539   8.982   1.549  0.2543  0.1331  0.9977
18791THY    CP360239   7.335   8.770   1.732  0.6650 -0.7596  0.1683
18791THY    HP560240   7.346   8.673   1.783  0.5244 -0.8123  0.1226
18791THY    HP660241   7.248   8.744   1.670 -0.4697  1.6325 -2.3193
18791THY    HP760242   7.300   8.840   1.809  0.4047 -1.3315  0.6687
18791THY    CA360243   7.575   8.894   1.869  0.0441 -0.7141  0.6031
18791THY    HA360244   7.501   8.974   1.881 -0.7153  1.7325 -0.3716
18791THY    CA460245   7.670   8.896   1.972  0.7002 -0.9021  0.9443
18791THY    HA460246   7.670   8.973   2.049  0.3445 -2.5264  2.6526
18791THY    CA560247   7.768   8.802   1.962 -0.6201  0.3453  0.0538
18791THY    CM160248   7.874   8.815   2.063 -0.7542  0.4591  0.6346
18791THY    HM160249   7.911   8.715   2.085 -1.1961  1.8481  0.7536
18791THY    HM260250   7.833   8.846   2.160  1.2911  2.2582 -1.8749
18791THY    HM360251   7.960   8.871   2.025 -1.4776 -0.3645  1.2149
18791THY    CA660252   7.769   8.699   1.860 -0.5396  0.2743 -1.7315
18791THY    HA660253   7.862   8.642   1.867 -1.3651  0.6516 -3.0787
18792THY      O60254   8.805   3.815   2.413 -1.0739  0.4635  0.2852
18792THY     HO60255   8.892   3.857   2.420 -0.1746  0.6280 -1.4916
18792THY    CA160256   8.820   3.691   2.457 -0.7770 -0.2393  0.1136
18792THY    CA260257   8.713   3.608   2.487 -0.2218  0.0415  0.0817
18792THY    CP160258   8.572   3.646   2.453  0.4227  0.5404 -0.2598
18792THY    HP160259   8.569   3.731   2.383 -2.9960  0.2918 -0.4657
18792THY    CP260260   8.485   3.666   2.575  0.0706 -0.1048 -0.0740
18792THY    HP260261   8.508   3.748   2.645  0.1253 -0.6207  0.3597
18792THY    HP360262   8.467   3.573   2.629 -0.3866  2.7522  1.5770
18792THY    HP460263   8.391   3.686   2.523  0.7892 -1.2717  0.4314
18792THY    CP360264   8.503   3.538   2.373 -0.4345 -0.5461 -0.1742
18792THY    HP560265   8.574   3.504   2.296 -0.1016 -0.8393  1.1159
18792THY    HP660266   8.424   3.593   2.321  0.5976  1.7017  3.8915
18792THY    HP760267   8.463   3.458   2.435 -0.0208  0.4694  0.3897
18792THY    CA360268   8.740   3.485   2.549 -0.0350 -0.0736  0.3329
18792THY    HA360269   8.656   3.420   2.571 -0.5850  0.6213  1.2514
18792THY    CA460270   8.877   3.440   2.575 -0.2401  0.0316 -0.0059
18792THY    HA460271   8.899   3.349   2.631 -1.3395 -1.5512 -1.2998
18792THY    CA560272   8.980   3.535   2.542 -0.6556 -0.1435 -0.0241
18792THY    CM160273   9.122   3.502   2.591 -0.6397  0.1391  0.4772
18792THY    HM160274   9.201   3.571   2.560 -2.8968 -1.7445  2.3783
18792THY    HM260275   9.149   3.396   2.577 -2.1991 -0.3535  0.1114
18792THY    HM360276   9.103   3.525   2.696 -0.5732  0.1996  0.2615
18792THY    CA660277   8.951   3.654   2.479  0.1932 -0.1448 -0.2044
18792THY    HA660278   9.033   3.724   2.464 -0.8728  0.0723  1.1417
18793THY      O60279   5.361   1.082   7.232  0.0047  0.2351  0.0884
18793THY     HO60280   5.350   1.170   7.272  0.8880  0.6101  0.0319
18793THY    CA160281   5.406   1.082   7.104 -0.7236  0.0570 -0.1945
18793THY    CA260282   5.424   0.963   7.029 -0.4152 -0.4032 -0.0851
18793THY    CP160283   5.395   0.824   7.094 -0.1990 -0.1854 -0.3476
18793THY    HP160284   5.419   0.818   7.201 -0.8771  0.2248  2.7426
18793THY    CP260285   5.455   0.699   7.022 -0.0672 -0.4073 -0.7800
18793THY    HP260286   5.454   0.611   7.087  0.2924  2.3581  1.1125
18793THY    HP360287   5.557   0.728   6.994 -0.5035 -2.0114 -0.7294
18793THY    HP460288   5.410   0.689   6.923  1.9697 -1.2716 -1.9194
18793THY    CP360289   5.244   0.802   7.083 -0.7460  0.3147  0.1126
18793THY    HP560290   5.199   0.889   7.134 -0.7259 -0.3164  0.4955
18793THY    HP660291   5.210   0.708   7.129 -0.6784 -0.0281 -0.0821
18793THY    HP760292   5.217   0.788   6.978 -1.2774  0.6947 -2.2028
18793THY    CA360293   5.467   0.972   6.900  0.0523  0.7955 -0.8229
18793THY    HA360294   5.491   0.888   6.837 -0.3287 -1.1338  0.4571
18793THY    CA460295   5.470   1.097   6.838  0.4492 -0.7326 -1.0271
18793THY    HA460296   5.486   1.105   6.731 -0.4407 -0.7756  0.6756
18793THY    CA560297   5.451   1.218   6.909  0.0164 -0.4709 -0.0093
18793THY    CM160298   5.473   1.355   6.848  0.5807  0.4302  0.1209
18793THY    HM160299   5.375   1.397   6.823  1.9905 -2.2133  2.1031
18793THY    HM260300   5.523   1.347   6.751 -0.9156 -0.3692 -0.0288
18793THY    HM360301   5.521   1.429   6.913  0.4676  0.4713  0.1596
18793THY    CA660302   5.426   1.204   7.041 -0.2669 -0.2625 -0.6434
18793THY    HA660303   5.422   1.297   7.097  2.9605  1.6327 -1.5032
18794THY      O60304   8.709   2.139   4.223  0.1068 -0.0180  0.0414
18794THY     HO60305   8.648   2.063   4.225  0.0345  2.2593  0.0749
18794THY    CA160306   8.629   2.223   4.165  1.0019  0.3527  0.4608
18794THY    CA260307   8.654   2.359   4.147 -0.1205 -0.1329 -0.5706
18794THY    CP160308   8.788   2.423   4.204 -0.3839  0.2557 -0.0709
18794THY    HP160309   8.848   2.352   4.264  3.1524  0.5633  2.8611
18794THY    CP260310   8.753   2.527   4.305  0.4681 -0.1415 -0.3239
18794THY    HP260311   8.681   2.484   4.375  0.7828  0.7801  0.5988
18794THY    HP360312   8.720   2.624   4.265  1.1290  1.8006  0.7613
18794THY    HP460313   8.845   2.538   4.364  0.1090  0.4106 -0.2512
18794THY    CP360314   8.883   2.484   4.092 -0.2534  0.4716 -0.0539
18794THY    HP560315   8.832   2.563   4.036  0.5023 -1.2163 -0.7122
18794THY    HP660316   8.908   2.401   4.025 -0.4332  0.5531 -0.1749
18794THY    HP760317   8.972   2.525   4.142 -0.6089  1.1019 -0.0303
18794THY    CA360318   8.560   2.441   4.087  0.1207 -0.1803 -0.8042
18794THY    HA360319   8.569   2.548   4.070  0.1869  1.2858 -0.5615
18794THY    CA460320   8.432   2.395   4.065  0.6794 -0.1315  0.1337
18794THY    HA460321   8.357   2.457   4.017  2.1083 -1.2497  1.0598
18794THY    CA560322   8.402   2.259   4.086  0.7364  0.6812  0.1065
18794THY    CM160323   8.261   2.195   4.057 -0.1111  0.2119 -0.1104
18794THY    HM160324   8.270   2.116   3.981 -0.6516  2.1391 -2.1204
18794THY    HM260325   8.191   2.271   4.022 -0.8294 -1.4567 -1.4621
18794THY    HM360326   8.228   2.137   4.144 -0.9264 -0.6510 -0.9705
18794THY    CA660327   8.499   2.176   4.143 -1.2438  0.4333  0.0046
18794THY    HA660328   8.475   2.071   4.156  0.3312 -0.9315 -0.5710
18795THY      O60329   4.070   4.390   3.987  0.0648 -0.0838  0.2177
18795THY     HO60330   4.059   4.443   3.906 -0.8393 -0.8856 -1.1515
18795THY    CA160331   4.055   4.477   4.094  0.1440  0.1454 -0.0898
18795THY    CA260332   4.080   4.442   4.227 -0.1855 -0.6205 -0.4663
18795THY    CP160333   4.128   4.311   4.272 -0.2347  0.2586  0.6912
18795THY    HP160334   4.183   4.258   4.193 -0.0849  0.1733  0.9691
18795THY    CP260335   4.007   4.214   4.308 -0.0308  0.1325  0.3889
18795THY    HP260336   4.045   4.124   4.358  0.6978  1.0099  1.1627
18795THY    HP360337   3.946   4.196   4.219 -0.2429  0.1557  0.9528
18795THY    HP460338   3.941   4.255   4.386  0.2493 -0.0096  1.1304
18795THY    CP360339   4.227   4.319   4.394 -0.7300  0.6187  0.0824
18795THY    HP560340   4.288   4.410   4.388  1.0706 -0.3695 -1.1269
18795THY    HP660341   4.293   4.232   4.400 -1.2794 -0.2088 -0.4099
18795THY    HP760342   4.178   4.307   4.491 -1.4512  0.0908 -1.6215
18795THY    CA360343   4.051   4.540   4.329  0.7332  0.2168  0.7046
18795THY    HA360344   4.059   4.515   4.434  1.8155 -0.2453 -1.0980
18795THY    CA460345   4.014   4.668   4.296 -0.0690 -0.2315 -0.0770
18795THY    HA460346   3.994   4.740   4.374 -3.6570 -1.0586  0.0327
18795THY    CA560347   3.991   4.700   4.164 -0.3898 -0.0838  0.3979
18795THY    CM160348   3.920   4.828   4.126  0.0476  0.3846 -0.3589
18795THY    HM160349   3.882   4.891   4.207 -1.4193 -0.5253 -0.0375
18795THY    HM260350   3.833   4.802   4.066  0.7013 -0.9551  0.4374
18795THY    HM360351   3.983   4.879   4.053 -1.8385 -0.6078  0.6234
18795THY    CA660352   4.005   4.602   4.065 -0.2513 -0.0212 -0.9502
18795THY    HA660353   3.978   4.632   3.964  0.7547  0.2809  1.1164
18796THY      O60354   0.818   6.158   2.281 -0.3153 -0.0380 -0.7532
18796THY     HO60355   0.854   6.071   2.307 -0.2888  2.4138 -0.0821
18796THY    CA160356   0.908   6.220   2.197 -0.0055 -0.1095 -0.0360
18796THY    CA260357   0.913   6.364   2.176 -0.0370  0.4779  0.5461
18796THY    CP160358   0.823   6.466   2.253 -0.3228  1.0138 -0.2118
18796THY    HP160359   0.759   6.402   2.314  0.0857  0.3252 -1.3222
18796THY    CP260360   0.748   6.548   2.149 -0.1215 -0.5856 -0.0011
18796THY    HP260361   0.669   6.606   2.197 -0.0274  0.2025 -0.5151
18796THY    HP360362   0.686   6.484   2.086 -0.9383  0.0457  0.1626
18796THY    HP460363   0.824   6.609   2.097  0.1350 -1.1707 -0.8076
18796THY    CP360364   0.902   6.547   2.354 -0.2311 -0.1212 -0.6623
18796THY    HP560365   0.845   6.634   2.389  0.1104  2.1701 -1.3034
18796THY    HP660366   0.994   6.587   2.311 -0.4483  1.4110  1.7187
18796THY    HP760367   0.939   6.488   2.438 -4.1126  2.4945  0.2047
18796THY    CA360368   1.006   6.419   2.086 -0.1059  1.0806  0.0214
18796THY    HA360369   1.010   6.528   2.084  2.4090  0.3977 -0.0233
18796THY    CA460370   1.105   6.337   2.028 -0.5285 -0.4589 -0.2834
18796THY    HA460371   1.174   6.384   1.958 -0.9361 -2.1740 -2.0997
18796THY    CA560372   1.107   6.196   2.060  0.5017  0.2655 -0.6208
18796THY    CM160373   1.223   6.110   2.008  0.9923  0.4888  0.2827
18796THY    HM160374   1.255   6.036   2.082 -0.1855 -2.1046 -3.0964
18796THY    HM260375   1.311   6.171   1.984  1.2113 -1.9548 -0.8564
18796THY    HM360376   1.185   6.060   1.918  2.5910 -0.2681  0.3726
18796THY    CA660377   1.014   6.146   2.145 -0.3016 -0.4870  0.4422
18796THY    HA660378   1.011   6.038   2.161  1.3981 -0.5227  0.3667
18797THY      O60379   3.492   3.764   4.890  0.6304  1.1041  0.6002
18797THY     HO60380   3.481   3.838   4.951  0.8209  1.2862  0.4800
18797THY    CA160381   3.549   3.803   4.774 -0.2518  1.0276  0.2083
18797THY    CA260382   3.587   3.709   4.673  0.7241  0.1113 -0.7527
18797THY    CP160383   3.594   3.562   4.710 -0.5996  0.2921  0.5151
18797THY    HP160384   3.560   3.547   4.814  0.8749  0.6452 -0.6498
18797THY    CP260385   3.740   3.508   4.712 -0.0252  0.3162  0.4082
18797THY    HP260386   3.809   3.582   4.756  4.0276 -1.5664 -1.9121
18797THY    HP360387   3.786   3.494   4.614  0.1940  0.4486  0.1894
18797THY    HP460388   3.745   3.414   4.767  1.1591 -0.3294  0.0754
18797THY    CP360389   3.514   3.465   4.623 -0.2442  0.0394  0.1669
18797THY    HP560390   3.412   3.504   4.630 -0.9315  2.2352 -1.7599
18797THY    HP660391   3.503   3.373   4.682 -2.5400  2.5918  1.9173
18797THY    HP760392   3.553   3.448   4.522  0.1720  0.0809  0.8613
18797THY    CA360393   3.651   3.751   4.562  0.1382 -0.0705 -0.2826
18797THY    HA360394   3.702   3.678   4.500  2.4779  0.9048  0.4539
18797THY    CA460395   3.671   3.893   4.544  0.4699  0.6327  0.3213
18797THY    HA460396   3.727   3.937   4.462  0.3467  0.7540  0.7062
18797THY    CA560397   3.614   3.984   4.629  0.3723  0.0029  0.2872
18797THY    CM160398   3.624   4.138   4.620  0.1146 -0.5659  0.2106
18797THY    HM160399   3.618   4.179   4.721  1.6905  0.3061 -1.5890
18797THY    HM260400   3.546   4.184   4.558 -2.0130  1.2820 -0.6688
18797THY    HM360401   3.724   4.156   4.580 -0.1288 -0.5291  1.7492
18797THY    CA660402   3.559   3.939   4.750  0.2248  0.2575  0.3194
18797THY    HA660403   3.525   4.003   4.831 -0.1550 -0.3068  0.8361
18798THY      O60404   7.897   2.959   4.192 -0.1308 -0.4638 -0.3813
18798THY     HO60405   7.814   2.961   4.142 -0.0914 -0.5384 -0.6027
18798THY    CA160406   7.916   2.827   4.228 -0.0382 -0.0148 -0.3211
18798THY    CA260407   7.985   2.792   4.348  0.0144 -0.2078 -0.1051
18798THY    CP160408   8.038   2.902   4.442  0.8620  0.1343  0.2307
18798THY    HP160409   8.002   2.998   4.404 -0.1849 -3.1937 -1.3257
18798THY    CP260410   8.191   2.915   4.472 -0.6157 -0.2377  0.8672
18798THY    HP260411   8.237   2.830   4.524 -0.3975 -0.9497  0.5397
18798THY    HP360412   8.221   3.002   4.531  2.6531 -1.2504  0.5466
18798THY    HP460413   8.258   2.919   4.386  0.8610  0.8368  0.1468
18798THY    CP360414   7.970   2.890   4.583  0.1665 -0.2925 -0.5996
18798THY    HP560415   7.860   2.884   4.579  0.1354  0.1733 -0.3830
18798THY    HP660416   8.001   2.979   4.638 -0.2907 -0.6039 -0.2416
18798THY    HP760417   8.007   2.798   4.630  1.7415 -0.0919  0.1027
18798THY    CA360418   8.006   2.655   4.379 -0.6982  0.1833  0.3264
18798THY    HA360419   8.070   2.628   4.461  0.8044 -1.3447 -0.9748
18798THY    CA460420   7.955   2.558   4.292  0.1061  0.1768 -0.1882
18798THY    HA460421   7.953   2.455   4.326 -3.2123  0.9956  0.0556
18798THY    CA560422   7.881   2.593   4.182  0.0159  0.2169 -0.3507
18798THY    CM160423   7.828   2.488   4.095  0.8807  0.7387  0.8619
18798THY    HM160424   7.829   2.522   3.991 -1.1161 -0.2366 -1.6866
18798THY    HM260425   7.727   2.450   4.117  1.6445  0.6792 -1.3731
18798THY    HM360426   7.896   2.403   4.109  1.2710  1.6769  1.3131
18798THY    CA660427   7.863   2.731   4.148 -0.3174 -0.3563  0.5141
18798THY    HA660428   7.818   2.760   4.053  0.1644 -0.4112  1.0935
18799THY      O60429   5.780   6.176   4.135  0.3005  0.4251  0.1317
18799THY     HO60430   5.765   6.255   4.081  1.1443  0.4787  0.3419
18799THY    CA160431   5.734   6.076   4.064 -0.7770  0.1715  0.2661
18799THY    CA260432   5.813   5.957   4.055  0.2223 -0.1096  0.1504
18799THY    CP160433   5.925   5.933   4.146 -0.8763 -0.0315  0.5805
18799THY    HP160434   5.967   6.029   4.179  0.2612 -0.3415  0.2016
18799THY    CP260435   6.039   5.858   4.067 -0.6882  0.0725  0.0231
18799THY    HP260436   6.028   5.749   4.068 -0.0577  2.9381 -0.0897
18799THY    HP360437   6.129   5.871   4.128 -0.3252 -0.7783  1.7732
18799THY    HP460438   6.062   5.908   3.973  1.9230  0.3657 -0.5130
18799THY    CP360439   5.881   5.867   4.277 -1.2165  0.5019  0.0115
18799THY    HP560440   5.785   5.815   4.264 -1.9875  1.2570  1.1967
18799THY    HP660441   5.873   5.950   4.348  1.0950  0.6878  0.1512
18799THY    HP760442   5.958   5.797   4.311  1.5867 -2.5301  1.3367
18799THY    CA360443   5.764   5.848   3.976 -0.0684  0.3084  0.2540
18799THY    HA360444   5.814   5.751   3.975  1.3054 -1.0969  0.9173
18799THY    CA460445   5.645   5.868   3.898 -0.1377  0.3226 -0.9305
18799THY    HA460446   5.623   5.793   3.822  0.9765 -1.2264  0.2205
18799THY    CA560447   5.572   5.990   3.900  0.0468 -0.8432  0.4484
18799THY    CM160448   5.455   6.007   3.807  0.2602  0.0548  0.3465
18799THY    HM160449   5.473   6.082   3.730 -2.6770 -1.2323 -0.1568
18799THY    HM260450   5.368   6.043   3.863  0.1634  0.7071 -0.8582
18799THY    HM360451   5.434   5.912   3.757 -1.2976 -0.7674  1.0999
18799THY    CA660452   5.619   6.097   3.984  0.2772  1.0719  0.6121
18799THY    HA660453   5.564   6.190   3.992 -1.0443  1.2982 -0.1645
18800THY      O60454   8.122   6.480   2.340 -0.0299  0.1553  0.0207
18800THY     HO60455   8.182   6.494   2.264  0.2036  0.4345  0.5779
18800THY    CA160456   8.197   6.428   2.438  0.5485 -0.2476 -0.0817
18800THY    CA260457   8.150   6.378   2.558  0.1215 -0.1617  0.0351
18800THY    CP160458   8.001   6.393   2.590 -0.5146 -0.4139 -0.1319
18800THY    HP160459   7.951   6.480   2.546  0.8137  1.4984  1.6930
18800THY    CP260460   7.976   6.412   2.742  0.6551  0.2859  0.4993
18800THY    HP260461   7.979   6.318   2.798 -0.1972 -0.7492 -0.1740
18800THY    HP360462   7.876   6.453   2.757  0.7694  2.0266  0.2044
18800THY    HP460463   8.046   6.484   2.786  1.2000  0.8898 -0.3741
18800THY    CP360464   7.936   6.263   2.544  0.0182  0.0531 -0.2681
18800THY    HP560465   7.827   6.273   2.556  0.1990  0.0324  2.9741
18800THY    HP660466   7.974   6.168   2.584  1.5624 -2.0343 -0.6052
18800THY    HP760467   7.931   6.249   2.435  0.9022  0.1485 -1.4300
18800THY    CA360468   8.229   6.308   2.648 -0.3054 -0.2628  0.3152
18800THY    HA360469   8.189   6.269   2.741  0.6991 -0.1870 -0.5793
18800THY    CA460470   8.358   6.281   2.606 -0.4999  0.4207  0.1397
18800THY    HA460471   8.427   6.217   2.660  1.2650 -1.3306  0.4813
18800THY    CA560472   8.409   6.334   2.491  0.0767  0.2172 -0.2278
18800THY    CM160473   8.556   6.323   2.458  0.1348 -0.6630  0.3615
18800THY    HM160474   8.611   6.299   2.550 -1.1151  1.0179  3.2604
18800THY    HM260475   8.595   6.415   2.413  0.1940 -2.4941 -0.5303
18800THY    HM360476   8.565   6.239   2.389 -0.0664  0.1596 -0.3488
18800THY    CA660477   8.330   6.412   2.411  0.0573 -0.3405 -0.7031
18800THY    HA660478   8.381   6.447   2.322 -0.3697 -0.6218 -0.7904
18801THY      O60479   1.294   2.503   2.490 -0.3332  0.8179 -0.2673
18801THY     HO60480   1.212   2.481   2.537 -0.6903 -0.0699 -0.8889
18801THY    CA160481   1.271   2.609   2.408 -0.2451  0.1227  0.3167
18801THY    CA260482   1.372   2.660   2.331  0.7447  0.3067  0.2272
18801THY    CP160483   1.513   2.604   2.340  0.0184  0.4398 -0.1461
18801THY    HP160484   1.517   2.512   2.400  1.1075 -0.5822 -0.7958
18801THY    CP260485   1.609   2.713   2.401 -0.1627  0.4758  0.1109
18801THY    HP260486   1.701   2.664   2.436 -1.4408  1.5253 -1.6847
18801THY    HP360487   1.549   2.765   2.477 -0.8008  0.4923 -0.6309
18801THY    HP460488   1.639   2.774   2.315 -0.2536  0.2074 -0.2182
18801THY    CP360489   1.564   2.555   2.198  0.3840  0.1856 -0.3613
18801THY    HP560490   1.589   2.642   2.137  3.3065  3.0573  1.0299
18801THY    HP660491   1.487   2.489   2.157 -0.0996  1.9178 -0.9409
18801THY    HP760492   1.658   2.503   2.221 -0.5459  2.6031 -1.1282
18801THY    CA360493   1.339   2.768   2.238  0.1764  0.1281  0.3785
18801THY    HA360494   1.419   2.810   2.178  1.0664 -0.9381 -2.5830
18801THY    CA460495   1.209   2.820   2.238  0.1397 -0.2603 -0.2457
18801THY    HA460496   1.191   2.914   2.186 -2.3982  1.0240  0.0653
18801THY    CA560497   1.111   2.770   2.324  0.0824 -0.2739  0.5536
18801THY    CM160498   0.969   2.812   2.322  0.6020  0.2021  0.0223
18801THY    HM160499   0.918   2.805   2.419 -1.9156 -0.9790  0.8744
18801THY    HM260500   0.908   2.761   2.247 -0.3837  0.9169  0.1345
18801THY    HM360501   0.963   2.917   2.293 -0.4452  0.3531  0.0117
18801THY    CA660502   1.151   2.664   2.404  0.4462  0.5721 -0.7995
18801THY    HA660503   1.073   2.624   2.468  0.7103  2.1897  1.1154
18802THY      O60504   3.692   2.843   7.153  0.3436  0.0974 -0.3105
18802THY     HO60505   3.762   2.909   7.141 -0.9010 -0.4774  0.9413
18802THY    CA160506   3.588   2.912   7.216 -0.0655  0.2221  0.0233
18802THY    CA260507   3.466   2.854   7.259  0.3015  0.4874 -0.1500
18802THY    CP160508   3.432   2.715   7.214 -0.0260  0.1802  0.3403
18802THY    HP160509   3.525   2.663   7.189 -0.2942 -3.2518  1.3118
18802THY    CP260510   3.351   2.716   7.078 -0.0178  0.0017  0.4323
18802THY    HP260511   3.312   2.618   7.047  1.3287 -3.5875  0.8633
18802THY    HP360512   3.417   2.744   6.995 -0.0775  0.2395  1.3136
18802THY    HP460513   3.270   2.789   7.075 -0.4194 -1.6788 -0.0480
18802THY    CP360514   3.357   2.632   7.319 -0.4835  0.0221  0.1261
18802THY    HP560515   3.400   2.672   7.411  1.5706 -1.3040  1.1654
18802THY    HP660516   3.386   2.526   7.317  1.4784  0.9636  0.6015
18802THY    HP760517   3.248   2.647   7.322 -0.1460  1.1216  2.9405
18802THY    CA360518   3.386   2.934   7.349 -0.1037  0.1112  0.5582
18802THY    HA360519   3.291   2.904   7.391  0.3118  0.5515 -0.1793
18802THY    CA460520   3.433   3.059   7.392  0.4579 -0.5914  0.2990
18802THY    HA460521   3.364   3.117   7.452 -2.4203 -2.8051 -0.5803
18802THY    CA560522   3.544   3.116   7.331 -0.2468 -0.0815  0.0634
18802THY    CM160523   3.580   3.256   7.370  0.0941 -0.4283  0.4512
18802THY    HM160524   3.651   3.291   7.294  0.4107 -0.4416 -0.2084
18802THY    HM260525   3.641   3.258   7.461  0.9638 -1.0106  2.0145
18802THY    HM360526   3.501   3.326   7.400  1.6159 -2.6415  3.3383
18802THY    CA660527   3.629   3.036   7.256 -0.5060 -0.1920 -0.2209
18802THY    HA660528   3.724   3.081   7.226 -0.1960 -1.5546 -1.6705
18803THY      O60529   0.459   3.153   5.743 -0.2214  0.5485 -0.2601
18803THY     HO60530   0.371   3.141   5.703 -0.7110  1.4378  0.2086
18803THY    CA160531   0.436   3.137   5.878  0.6242  0.2096  0.4331
18803THY    CA260532   0.504   3.205   5.976 -0.2405 -0.9570 -0.0894
18803THY    CP160533   0.626   3.297   5.933  1.1884 -0.3012 -0.5029
18803THY    HP160534   0.651   3.271   5.830  0.2878 -0.1923 -1.8782
18803THY    CP260535   0.747   3.282   6.021  0.4485 -0.0240  0.2927
18803THY    HP260536   0.781   3.178   6.011  0.3092 -0.3067  0.2753
18803THY    HP360537   0.727   3.288   6.129 -1.4787 -0.3100 -0.4600
18803THY    HP460538   0.830   3.349   5.994  1.1627 -0.8444 -0.8744
18803THY    CP360539   0.573   3.441   5.938 -0.0733 -0.7989 -0.3092
18803THY    HP560540   0.487   3.453   5.871 -0.3988 -0.2263  0.6798
18803THY    HP660541   0.655   3.500   5.895  1.1556  0.4240 -1.0805
18803THY    HP760542   0.559   3.474   6.042  0.6192 -0.7830 -0.0457
18803THY    CA360543   0.458   3.192   6.112  0.5010 -0.0255 -0.9139
18803THY    HA360544   0.508   3.252   6.187 -1.3167 -0.4743  1.2823
18803THY    CA460545   0.354   3.107   6.147 -0.2880  0.3466  0.8278
18803THY    HA460546   0.320   3.095   6.250 -1.1422  0.0084  0.2411
18803THY    CA560547   0.295   3.023   6.045 -0.5563 -0.2314  0.0547
18803THY    CM160548   0.195   2.927   6.094 -0.8168  0.2720 -0.1210
18803THY    HM160549   0.219   2.917   6.200 -0.2628  0.3848  1.8868
18803THY    HM260550   0.195   2.827   6.050  1.7486 -0.1833  0.0069
18803THY    HM360551   0.092   2.961   6.080 -0.3815  0.1951  1.2358
18803THY    CA660552   0.344   3.035   5.913  0.5987 -0.8466 -0.1330
18803THY    HA660553   0.284   2.981   5.840  0.9401 -1.4273  0.2640
18804THY      O60554   8.707   8.500   6.633  0.2821  0.1506 -0.7017
18804THY     HO60555   8.726   8.405   6.640  2.1459 -0.8779 -0.4455
18804THY    CA160556   8.734   8.539   6.507 -1.0224 -0.9791 -0.1159
18804THY    CA260557   8.739   8.674   6.467  0.4537 -0.1121  0.3536
18804THY    CP160558   8.671   8.788   6.551  0.0595  0.3621 -0.6106
18804THY    HP160559   8.611   8.734   6.626  1.7890  2.4159  0.1905
18804THY    CP260560   8.578   8.871   6.467 -0.3148 -0.1597 -0.5284
18804THY    HP260561   8.645   8.911   6.390 -0.1353  0.4403  0.3600
18804THY    HP360562   8.542   8.954   6.530 -0.2712  1.0224 -1.3735
18804THY    HP460563   8.490   8.815   6.432 -1.5061  0.7408  0.7032
18804THY    CP360564   8.775   8.885   6.612 -0.8985  0.4080  0.6214
18804THY    HP560565   8.844   8.829   6.676 -0.6481 -0.4436 -0.0661
18804THY    HP660566   8.730   8.960   6.679 -1.0525  2.3508 -1.1231
18804THY    HP760567   8.840   8.931   6.537  0.2440  0.5675 -0.6803
18804THY    CA360568   8.803   8.700   6.346 -0.5601 -0.0217 -0.1734
18804THY    HA360569   8.815   8.802   6.311  1.5059  0.5407 -0.1590
18804THY    CA460570   8.843   8.599   6.254 -0.0023 -0.4291  0.9797
18804THY    HA460571   8.892   8.621   6.160 -0.4668 -0.7628  0.6132
18804THY    CA560572   8.826   8.463   6.291  1.3177 -0.8917 -0.8822
18804THY    CM160573   8.867   8.357   6.194  0.1442  1.0079 -0.4775
18804THY    HM160574   8.829   8.257   6.220 -1.1987  1.7080  0.1901
18804THY    HM260575   8.975   8.345   6.197 -0.0666  2.1413 -2.5822
18804THY    HM360576   8.830   8.385   6.094 -0.1000  0.6951 -1.8412
18804THY    CA660577   8.775   8.440   6.420 -0.0119  0.3648  0.7515
18804THY    HA660578   8.767   8.334   6.441 -1.5329  0.2376  0.8113
18805THY      O60579   5.572   2.555   5.073 -0.2918 -0.0650  0.0292
18805THY     HO60580   5.568   2.596   5.161  0.7735  0.3171 -0.6459
18805THY    CA160581   5.443   2.537   5.027 -0.0719  0.0939  0.4613
18805THY    CA260582   5.424   2.507   4.888  0.1790  0.2335 -0.1501
18805THY    CP160583   5.541   2.505   4.783 -0.2355 -0.9178  0.3880
18805THY    HP160584   5.625   2.456   4.834  0.1049 -0.9034  0.9746
18805THY    CP260585   5.580   2.641   4.739  0.3525  0.2877  0.3896
18805THY    HP260586   5.633   2.695   4.818  0.8124 -0.4154  0.9719
18805THY    HP360587   5.488   2.695   4.713  0.1807 -1.2165 -0.5729
18805THY    HP460588   5.647   2.637   4.653  0.6630  0.4652  1.4910
18805THY    CP360589   5.516   2.418   4.652 -0.1936  0.6382 -0.9012
18805THY    HP560590   5.615   2.380   4.623 -0.7991 -1.1984 -1.1639
18805THY    HP660591   5.470   2.472   4.569 -1.4947 -0.1778 -3.1084
18805THY    HP760592   5.454   2.329   4.669 -2.4740 -1.1994  0.2349
18805THY    CA360593   5.290   2.476   4.850  0.8007 -0.0301 -0.3467
18805THY    HA360594   5.273   2.448   4.746 -0.6271 -0.1033  0.6697
18805THY    CA460595   5.186   2.476   4.943 -0.0553  0.0063 -0.3009
18805THY    HA460596   5.083   2.456   4.918 -0.1035  0.2944 -0.4162
18805THY    CA560597   5.207   2.513   5.082 -0.0265 -0.0834  0.3905
18805THY    CM160598   5.089   2.524   5.176  0.7666 -0.3837 -0.2708
18805THY    HM160599   5.012   2.582   5.123  1.1642 -2.0288 -1.1942
18805THY    HM260600   5.123   2.579   5.265  1.7403 -0.3466 -0.9122
18805THY    HM360601   5.044   2.426   5.195 -2.9387 -0.6792  1.2186
18805THY    CA660602   5.341   2.544   5.120  0.8117 -0.4886 -0.4646
18805THY    HA660603   5.353   2.570   5.225 -3.4782  0.2510 -0.6701
18806THY      O60604   1.232   4.209   6.520 -0.2782 -0.3314  0.3138
18806THY     HO60605   1.269   4.287   6.474  0.4880  0.8077  0.6390
18806THY    CA160606   1.104   4.251   6.539  0.1963 -0.3533 -0.6431
18806THY    CA260607   1.032   4.192   6.644  0.1647 -0.5496  1.0265
18806THY    CP160608   1.087   4.070   6.709 -0.2367 -0.3479  0.4859
18806THY    HP160609   1.145   4.003   6.645  1.3883  1.8963 -0.3657
18806THY    CP260610   0.979   3.980   6.764  0.1652 -0.2313 -0.0373
18806THY    HP260611   1.015   3.878   6.781  0.5251 -1.4042 -0.1266
18806THY    HP360612   0.896   3.982   6.692 -2.5635  2.6882  0.9253
18806THY    HP460613   0.941   4.012   6.862 -0.6914  0.0876 -1.8903
18806THY    CP360614   1.177   4.112   6.826 -0.0603 -0.5165  0.6818
18806THY    HP560615   1.133   4.188   6.892  1.0348  0.6105  0.3647
18806THY    HP660616   1.265   4.168   6.791 -0.7162 -2.3969  0.6256
18806THY    HP760617   1.219   4.025   6.877 -0.4517 -2.8510 -0.9460
18806THY    CA360618   0.909   4.253   6.686 -0.7136 -0.0767  0.2809
18806THY    HA360619   0.855   4.208   6.769  0.6471  0.0622 -1.2058
18806THY    CA460620   0.863   4.365   6.620 -1.0163  0.2024 -0.5320
18806THY    HA460621   0.766   4.410   6.638 -0.2114 -1.0839  1.9662
18806THY    CA560622   0.937   4.420   6.513  0.5205  0.0674 -0.2414
18806THY    CM160623   0.905   4.555   6.455  0.1047 -0.0132 -0.7062
18806THY    HM160624   0.810   4.543   6.401 -0.4896  0.0868  2.5239
18806THY    HM260625   0.969   4.604   6.381 -0.1856  0.3848  0.2987
18806THY    HM360626   0.884   4.628   6.534 -0.4450 -1.9392  1.3670
18806THY    CA660627   1.058   4.366   6.476  0.1508  0.3021 -0.2341
18806THY    HA660628   1.118   4.422   6.405  0.0015  0.3127 -0.0590
18807THY      O60629   1.598   4.857   3.317 -0.7372 -0.4678 -0.1790
18807THY     HO60630   1.602   4.885   3.225  0.6644 -0.2468  0.4049
18807THY    CA160631   1.726   4.880   3.369 -0.2344 -0.1311  0.1404
18807THY    CA260632   1.771   4.813   3.482  0.1167 -0.2135 -0.1357
18807THY    CP160633   1.669   4.713   3.546 -0.7120  0.3208  0.9188
18807THY    HP160634   1.597   4.663   3.480  0.0458  1.3524 -1.7053
18807THY    CP260635   1.586   4.791   3.648 -0.5513 -0.1134 -0.0467
18807THY    HP260636   1.558   4.892   3.618  1.4459  1.8854  1.1992
18807THY    HP360637   1.635   4.797   3.745 -1.9182  0.6726 -0.9750
18807THY    HP460638   1.498   4.726   3.652 -0.1973 -0.3651 -0.5495
18807THY    CP360639   1.750   4.593   3.613 -0.5515  0.7146  0.1109
18807THY    HP560640   1.680   4.515   3.646  0.8089  1.1875 -0.9525
18807THY    HP660641   1.811   4.630   3.696 -0.3380 -0.2144  1.9420
18807THY    HP760642   1.818   4.551   3.538 -2.3473 -0.4141 -0.9573
18807THY    CA360643   1.893   4.843   3.538 -0.0220 -0.2051 -0.6445
18807THY    HA360644   1.916   4.794   3.633 -1.9299 -0.2138 -1.6377
18807THY    CA460645   1.978   4.931   3.472  0.2279  0.5182 -0.5075
18807THY    HA460646   2.073   4.944   3.523 -1.1374  3.5201 -1.4787
18807THY    CA560647   1.934   4.999   3.353 -0.7091 -0.8975  0.1908
18807THY    CM160648   2.027   5.073   3.273  0.1346  0.0476 -0.2423
18807THY    HM160649   1.972   5.164   3.246  0.1151 -0.6171 -0.4421
18807THY    HM260650   2.062   5.019   3.184  1.4634 -1.5281  2.9719
18807THY    HM360651   2.112   5.104   3.333  2.0943 -2.2145 -0.9135
18807THY    CA660652   1.808   4.976   3.308  0.6139 -0.0996 -0.5494
18807THY    HA660653   1.775   5.028   3.218  2.4039 -1.1029 -1.0299
18808THY      O60654   6.821   7.644   5.680 -0.2241  0.0521  0.0094
18808THY     HO60655   6.788   7.732   5.704 -0.4548 -2.1986  0.6022
18808THY    CA160656   6.730   7.592   5.583 -0.0121 -0.6420  0.1081
18808THY    CA260657   6.650   7.480   5.612 -0.0590  0.1056  0.3207
18808THY    CP160658   6.669   7.390   5.730  0.1212 -0.0196 -0.3195
18808THY    HP160659   6.748   7.430   5.794  1.1264 -0.8958 -0.8467
18808THY    CP260660   6.716   7.254   5.677 -0.7829 -0.1103 -0.7991
18808THY    HP260661   6.658   7.219   5.591 -0.2506 -0.4586 -0.8266
18808THY    HP360662   6.705   7.184   5.761  1.0989 -0.1264 -1.1696
18808THY    HP460663   6.822   7.247   5.649 -0.7314  0.3736 -2.1518
18808THY    CP360664   6.544   7.363   5.818 -0.5940 -0.6916  0.2107
18808THY    HP560665   6.574   7.344   5.921 -0.1225 -1.0214 -0.8704
18808THY    HP660666   6.475   7.287   5.781 -1.4209 -3.2378  2.0531
18808THY    HP760667   6.484   7.455   5.827 -1.0106  0.3253 -0.1478
18808THY    CA360668   6.535   7.456   5.537  0.1800 -0.4199  0.3799
18808THY    HA360669   6.459   7.385   5.568 -1.4270 -2.3667  1.1407
18808THY    CA460670   6.518   7.534   5.421 -0.0155 -0.1070  0.1069
18808THY    HA460671   6.439   7.511   5.351 -1.5993  0.9487  2.0434
18808THY    CA560672   6.600   7.642   5.390  0.0968  0.2345 -0.7518
18808THY    CM160673   6.566   7.732   5.272 -0.0892 -0.3872  0.1130
18808THY    HM160674   6.485   7.684   5.216  1.5529 -1.1396 -1.9701
18808THY    HM260675   6.657   7.738   5.211  0.3633  0.1023 -1.2346
18808THY    HM360676   6.541   7.833   5.307  2.0998 -2.0379  1.3016
18808THY    CA660677   6.709   7.666   5.468  0.3244 -1.4349 -1.7344
18808THY    HA660678   6.772   7.755   5.465  0.9854  1.5982 -1.9790
18809THY      O60679   7.354   3.631   5.923  0.4468  0.2992  0.3748
18809THY     HO60680   7.437   3.639   5.873  0.4145 -0.2019 -1.6580
18809THY    CA160681   7.350   3.508   5.980  0.3312  0.1459  0.1920
18809THY    CA260682   7.228   3.453   6.033  0.1014 -0.1641 -0.1006
18809THY    CP160683   7.088   3.513   6.002  0.0016 -0.3781  0.4510
18809THY    HP160684   7.093   3.612   5.955  0.1903 -0.3998  0.4300
18809THY    CP260685   7.017   3.561   6.138  0.1331  0.5946  0.8203
18809THY    HP260686   7.077   3.634   6.195 -1.2770  2.8262  0.3381
18809THY    HP360687   6.994   3.483   6.211 -0.5704 -0.3991  0.0795
18809THY    HP460688   6.928   3.620   6.113  0.1169  1.2871  1.0967
18809THY    CP360689   6.994   3.426   5.916 -0.7812 -0.3572  0.0424
18809THY    HP560690   7.046   3.418   5.820  1.8297  0.9347  0.3360
18809THY    HP660691   6.896   3.473   5.905 -0.4004 -0.4874  0.8249
18809THY    HP760692   6.977   3.321   5.944  0.1401  1.0670  0.2452
18809THY    CA360693   7.236   3.325   6.090  0.4736 -0.2044  0.3149
18809THY    HA360694   7.146   3.269   6.116  0.9014 -0.4433 -0.4969
18809THY    CA460695   7.353   3.251   6.093 -0.1012  0.0091  0.4501
18809THY    HA460696   7.343   3.144   6.105 -0.3624 -1.0386  0.3508
18809THY    CA560697   7.467   3.315   6.053 -0.2226 -0.2331 -0.3689
18809THY    CM160698   7.591   3.239   6.076 -0.5961 -0.0443 -0.2571
18809THY    HM160699   7.588   3.132   6.050  0.4642  0.0013 -0.3102
18809THY    HM260700   7.630   3.244   6.179  1.5942 -0.6993 -2.0450
18809THY    HM360701   7.665   3.275   6.004 -0.5372  0.2819  0.2841
18809THY    CA660702   7.470   3.443   5.995  0.0281 -0.5384  0.6793
18809THY    HA660703   7.564   3.481   5.957  0.8393 -0.0383 -0.7562
18810THY      O60704   4.097   1.989   6.709 -0.3900  0.2124  0.1760
18810THY     HO60705   4.020   1.981   6.769 -0.6553 -0.1687 -0.1733
18810THY    CA160706   4.181   1.891   6.749  0.3928  0.3608  0.3957
18810THY    CA260707   4.313   1.889   6.701  0.0142 -0.4068 -0.8918
18810THY    CP160708   4.369   1.997   6.600 -0.2251 -1.0266  0.4006
18810THY    HP160709   4.294   2.062   6.552  0.5519 -0.8643  1.4425
18810THY    CP260710   4.443   1.921   6.485 -0.3710 -0.4210 -0.0426
18810THY    HP260711   4.540   1.874   6.506 -0.7577  2.5039  0.2633
18810THY    HP360712   4.449   2.006   6.417 -0.2693  0.0482  0.3285
18810THY    HP460713   4.373   1.854   6.434 -0.4573 -0.7826  0.3244
18810THY    CP360714   4.453   2.099   6.669 -0.9494  0.6223 -0.1644
18810THY    HP560715   4.557   2.065   6.683 -0.1637 -2.5085  0.5733
18810THY    HP660716   4.403   2.127   6.762 -0.0340  0.6333  1.5460
18810THY    HP760717   4.451   2.183   6.599  0.1581  0.7887  0.0258
18810THY    CA360718   4.399   1.792   6.758 -0.5703  0.1974  0.1391
18810THY    HA360719   4.501   1.778   6.723 -0.0081  1.9987 -0.5278
18810THY    CA460720   4.357   1.706   6.858 -0.0837  0.8550  0.3829
18810THY    HA460721   4.428   1.632   6.895 -0.7586 -1.2754 -1.4417
18810THY    CA560722   4.222   1.707   6.902  0.3140  1.2406 -0.1072
18810THY    CM160723   4.173   1.610   6.991  0.6256  0.0854 -0.5496
18810THY    HM160724   4.217   1.602   7.091  1.3319  0.0917  2.2405
18810THY    HM260725   4.178   1.511   6.944 -0.1521 -0.0296 -0.5445
18810THY    HM360726   4.067   1.627   7.014  0.2600 -2.1493  0.5337
18810THY    CA660727   4.138   1.798   6.839  0.6457  0.4105 -0.0982
18810THY    HA660728   4.032   1.794   6.863  0.2400 -1.3545 -0.5032
18811THY      O60729   0.655   3.979   5.200  0.1674  0.5139 -0.1452
18811THY     HO60730   0.579   3.923   5.179 -0.4403 -0.4567  1.0143
18811THY    CA160731   0.685   4.032   5.079 -0.4479  0.1892 -0.0289
18811THY    CA260732   0.708   4.166   5.056  0.1256 -0.6827 -0.7174
18811THY    CP160733   0.713   4.266   5.175 -0.7528 -0.0386 -0.6058
18811THY    HP160734   0.725   4.219   5.273  2.6752  0.1767  0.4673
18811THY    CP260735   0.580   4.338   5.166 -0.5229  0.1949 -0.0498
18811THY    HP260736   0.575   4.404   5.253 -1.7001 -0.1695  0.3641
18811THY    HP360737   0.495   4.270   5.178  0.1595 -1.1000 -1.2057
18811THY    HP460738   0.569   4.385   5.067 -0.6483  0.2547  0.0438
18811THY    CP360739   0.833   4.372   5.164  0.0728  0.6640 -0.2309
18811THY    HP560740   0.858   4.410   5.264  0.4475  0.5981 -0.2985
18811THY    HP660741   0.810   4.451   5.092  2.2372 -0.5233 -0.5995
18811THY    HP760742   0.918   4.318   5.120  1.0244  0.0334  1.7034
18811THY    CA360743   0.732   4.214   4.931 -0.5543  0.3396 -0.6273
18811THY    HA360744   0.754   4.319   4.916  0.7711 -0.3539 -0.9818
18811THY    CA460745   0.735   4.119   4.824 -0.3470 -0.2592  0.1142
18811THY    HA460746   0.760   4.157   4.725 -1.5022 -0.3771  0.6217
18811THY    CA560747   0.732   3.980   4.852  0.5714 -0.6232 -0.8422
18811THY    CM160748   0.768   3.875   4.760  0.0964  0.0752 -0.0485
18811THY    HM160749   0.856   3.820   4.795 -0.3623  0.3098 -0.6394
18811THY    HM260750   0.773   3.908   4.655  0.4342 -0.4217 -1.5766
18811THY    HM360751   0.686   3.803   4.767 -0.7386  0.4816  0.9303
18811THY    CA660752   0.694   3.936   4.979 -0.2327 -0.3220 -0.2611
18811THY    HA660753   0.698   3.830   4.999  0.8503 -0.9489 -0.3558
18812THY      O60754   8.424   2.643   3.673 -0.5371 -0.1411 -0.2239
18812THY     HO60755   8.431   2.736   3.645  0.0742  2.5103  0.6036
18812THY    CA160756   8.343   2.650   3.785 -0.7875 -0.7926 -0.4718
18812THY    CA260757   8.223   2.589   3.792 -0.2166 -0.5460  0.3171
18812THY    CP160758   8.163   2.512   3.680  0.2955  0.3328 -0.2988
18812THY    HP160759   8.215   2.548   3.590  0.8750  0.9434  0.4268
18812THY    CP260760   8.015   2.544   3.647  0.1040  0.0016 -0.5072
18812THY    HP260761   8.009   2.648   3.614 -1.1975 -1.4831 -1.0121
18812THY    HP360762   7.951   2.522   3.732  1.2765  0.9267 -0.4720
18812THY    HP460763   7.976   2.484   3.564  0.0818 -1.5523  1.5263
18812THY    CP360764   8.176   2.367   3.685 -0.6202 -0.0917  1.0368
18812THY    HP560765   8.122   2.315   3.765 -0.3980 -0.4924  0.1559
18812THY    HP660766   8.281   2.338   3.703 -0.7423  3.5646  2.3185
18812THY    HP760767   8.158   2.323   3.587 -0.0353 -0.1062  0.8185
18812THY    CA360768   8.141   2.605   3.907  0.0824 -0.2793 -1.2617
18812THY    HA360769   8.044   2.557   3.920  1.0889  1.6212 -2.9370
18812THY    CA460770   8.186   2.690   4.011  0.5333 -0.0099  1.1607
18812THY    HA460771   8.137   2.713   4.105  4.1300  2.0254  1.2583
18812THY    CA560772   8.309   2.752   4.001  0.1498 -0.5528  0.2865
18812THY    CM160773   8.359   2.824   4.121 -0.5014 -0.7843  0.1666
18812THY    HM160774   8.294   2.810   4.209  0.2128 -0.3889 -0.7529
18812THY    HM260775   8.368   2.932   4.106 -0.1552 -0.7914  0.1392
18812THY    HM360776   8.455   2.782   4.154 -0.4544  1.2254  1.6841
18812THY    CA660777   8.387   2.738   3.890  0.3826 -0.5217 -0.2618
18812THY    HA660778   8.486   2.781   3.886  0.4732  2.0449 -0.1056
18813THY      O60779   5.378   5.487   5.120 -1.1332 -0.1944  0.1273
18813THY     HO60780   5.470   5.472   5.092 -0.2290  2.1994  0.7628
18813THY    CA160781   5.353   5.607   5.063 -0.3264  0.2615 -0.5833
18813THY    CA260782   5.253   5.688   5.114 -0.4149 -0.8141 -0.0219
18813THY    CP160783   5.164   5.651   5.228  0.1320 -0.4549  0.2898
18813THY    HP160784   5.189   5.547   5.254  2.7316  0.8019  1.1321
18813THY    CP260785   5.014   5.654   5.209 -1.0723 -0.3667 -0.1418
18813THY    HP260786   4.958   5.634   5.301 -0.9031 -0.1386  0.4088
18813THY    HP360787   4.997   5.568   5.144 -1.7075  2.7955 -2.5923
18813THY    HP460788   4.989   5.755   5.175  1.4241  0.6308  0.8958
18813THY    CP360789   5.198   5.730   5.357 -0.3275  0.0641 -0.2026
18813THY    HP560790   5.173   5.836   5.358  1.1665 -0.0232  0.1748
18813THY    HP660791   5.306   5.721   5.375 -0.3485  0.2167 -0.1607
18813THY    HP760792   5.152   5.689   5.448  1.4430  1.2540  0.3346
18813THY    CA360793   5.247   5.819   5.073 -0.0082 -0.2062  0.8297
18813THY    HA360794   5.180   5.891   5.119  1.6679  3.2256  0.3939
18813THY    CA460795   5.315   5.858   4.954  0.2198 -0.1482  0.5496
18813THY    HA460796   5.295   5.957   4.913 -0.3402 -1.5272 -0.1272
18813THY    CA560797   5.413   5.778   4.895  0.1736 -0.5373 -0.2708
18813THY    CM160798   5.480   5.826   4.772 -0.6340  0.0976  0.0220
18813THY    HM160799   5.580   5.864   4.797 -0.1708  0.3824 -1.3422
18813THY    HM260800   5.436   5.909   4.716  0.3031  0.1331  0.5676
18813THY    HM360801   5.488   5.749   4.695 -4.5019 -1.2126  0.6876
18813THY    CA660802   5.434   5.651   4.954 -0.0390  0.2235  0.4265
18813THY    HA660803   5.503   5.582   4.906  0.1532 -0.3282  1.0002
18814THY      O60804   0.994   4.489   7.289 -0.1368 -0.2207  0.4323
18814THY     HO60805   0.951   4.574   7.273 -3.4477 -0.3805 -1.1056
18814THY    CA160806   0.925   4.395   7.219  0.9318  0.1399 -0.2834
18814THY    CA260807   0.970   4.263   7.198 -0.1738  0.0281  0.4354
18814THY    CP160808   1.103   4.216   7.269 -0.1503 -0.5602 -0.9078
18814THY    HP160809   1.114   4.275   7.361  0.2657 -0.7522 -0.6824
18814THY    CP260810   1.232   4.247   7.189 -0.1450  0.3862  0.0764
18814THY    HP260811   1.317   4.228   7.255  1.3146 -1.9673 -2.1090
18814THY    HP360812   1.236   4.355   7.171 -1.5028 -1.3488 -0.1235
18814THY    HP460813   1.247   4.182   7.103  2.1971 -0.2810  1.3753
18814THY    CP360814   1.103   4.072   7.316 -0.3110 -0.1987 -0.2243
18814THY    HP560815   1.140   4.001   7.241  1.0975  1.1261 -0.9667
18814THY    HP660816   1.001   4.044   7.342 -0.8141 -2.6057 -0.8285
18814THY    HP760817   1.172   4.052   7.400 -2.2218  1.1566 -1.4829
18814THY    CA360818   0.902   4.172   7.115  0.2342  0.3923 -0.7295
18814THY    HA360819   0.953   4.079   7.092  0.4262  2.4032 -1.1763
18814THY    CA460820   0.786   4.215   7.052  0.4845 -0.8438  0.4800
18814THY    HA460821   0.734   4.149   6.984 -0.5686  0.3008  0.0877
18814THY    CA560822   0.732   4.342   7.078 -0.2980  0.1943  0.1605
18814THY    CM160823   0.617   4.392   6.992  0.1766 -0.5291 -0.4754
18814THY    HM160824   0.565   4.299   6.966  1.6397  0.1371 -1.5286
18814THY    HM260825   0.651   4.456   6.910 -1.3315 -1.0184 -0.2502
18814THY    HM360826   0.555   4.454   7.057  0.3959  0.7878 -1.5850
18814THY    CA660827   0.804   4.433   7.161  0.2371 -0.5537 -0.3948
18814THY    HA660828   0.759   4.531   7.175 -1.0224 -0.8097 -0.9147
18815THY      O60829   4.988   3.528   4.971  0.4478 -0.3038  0.4159
18815THY     HO60830   5.044   3.466   5.022  0.2679  1.7597  1.8477
18815THY    CA160831   4.862   3.512   5.018 -0.0786  0.0994  0.1200
18815THY    CA260832   4.749   3.575   4.958  0.5792 -0.0301 -0.1825
18815THY    CP160833   4.742   3.649   4.826  0.1030 -0.1841 -0.3604
18815THY    HP160834   4.842   3.652   4.780  0.2203  0.0623  2.0146
18815THY    CP260835   4.681   3.798   4.839 -0.6504 -0.3696  0.2578
18815THY    HP260836   4.599   3.808   4.911 -1.1378 -0.8744 -0.0238
18815THY    HP360837   4.647   3.825   4.739 -1.8645 -0.3472 -1.0370
18815THY    HP460838   4.752   3.876   4.866  0.8316 -0.7754 -0.9010
18815THY    CP360839   4.664   3.573   4.727  0.0744  0.1728 -1.2325
18815THY    HP560840   4.567   3.535   4.758 -0.1223  0.3885 -0.5656
18815THY    HP660841   4.716   3.481   4.696 -1.0492 -1.0550 -1.4878
18815THY    HP760842   4.655   3.621   4.629 -1.5839  1.0300  0.2693
18815THY    CA360843   4.624   3.559   5.025 -0.1671 -0.4824 -0.3702
18815THY    HA360844   4.538   3.603   4.975 -1.4804 -1.6969 -3.9465
18815THY    CA460845   4.617   3.483   5.140 -0.2090  0.9104 -0.0087
18815THY    HA460846   4.524   3.463   5.191 -1.0974  0.6917  3.0994
18815THY    CA560847   4.730   3.430   5.201  0.0125 -0.4608 -0.2873
18815THY    CM160848   4.714   3.347   5.339  0.3799 -0.1757  0.3905
18815THY    HM160849   4.670   3.404   5.421 -0.6926  0.6935 -1.5717
18815THY    HM260850   4.812   3.318   5.378  1.0745 -2.2729 -0.3178
18815THY    HM360851   4.649   3.260   5.325 -1.0436  0.8857  1.2511
18815THY    CA660852   4.856   3.446   5.143 -0.7222 -0.4562  1.0363
18815THY    HA660853   4.942   3.403   5.192 -1.4460  0.1747  0.2774
18816THY      O60854   1.646   0.553   6.146  0.5354 -0.1798 -0.4917
18816THY     HO60855   1.581   0.497   6.192  0.2663  0.2149  0.1389
18816THY    CA160856   1.569   0.652   6.097  0.3009 -0.3936  0.0786
18816THY    CA260857   1.630   0.755   6.021  0.0559  0.8151  0.4737
18816THY    CP160858   1.785   0.762   6.000  0.2627  0.3756  0.3230
18816THY    HP160859   1.830   0.694   6.074 -0.0633  1.8169  1.6228
18816THY    CP260860   1.841   0.902   6.004 -0.2327 -0.8204  0.2949
18816THY    HP260861   1.804   0.953   6.094  1.4399  0.0121  0.1037
18816THY    HP360862   1.826   0.955   5.910  0.5126  0.0972  2.2468
18816THY    HP460863   1.948   0.900   6.029 -0.8667  2.4192 -1.0969
18816THY    CP360864   1.819   0.692   5.861 -0.4850  0.2036 -0.7405
18816THY    HP560865   1.773   0.592   5.872 -0.6575  0.0403 -0.6789
18816THY    HP660866   1.924   0.687   5.830 -0.2851  0.8964 -1.0277
18816THY    HP760867   1.763   0.738   5.779 -2.9222  0.8942 -2.2758
18816THY    CA360868   1.538   0.848   5.964  1.0393 -0.0676 -0.4284
18816THY    HA360869   1.567   0.919   5.887 -0.6779 -0.3646  0.0069
18816THY    CA460870   1.393   0.843   5.985 -0.6622 -0.4737 -0.8110
18816THY    HA460871   1.323   0.915   5.946  0.6447  0.3761  1.0027
18816THY    CA560872   1.345   0.744   6.064 -0.2146 -0.3284  0.4103
18816THY    CM160873   1.200   0.734   6.081  0.1847 -0.2104 -0.9263
18816THY    HM160874   1.166   0.698   6.179 -1.7265 -0.1526  0.8120
18816THY    HM260875   1.150   0.668   6.009 -1.1569 -0.9414  0.8068
18816THY    HM360876   1.162   0.836   6.069  1.5913 -0.9226 -0.4663
18816THY    CA660877   1.430   0.643   6.121  0.4333 -0.3392  0.4367
18816THY    HA660878   1.388   0.566   6.184  1.2568  0.2461  0.4638
18817THY      O60879   8.361   4.796   4.256 -0.6844  0.2124  0.3045
18817THY     HO60880   8.308   4.789   4.175 -1.3418  0.6818 -0.1975
18817THY    CA160881   8.319   4.705   4.344 -0.6444 -0.0771 -0.4705
18817THY    CA260882   8.399   4.658   4.452 -0.1067  0.8629 -0.0822
18817THY    CP160883   8.545   4.695   4.463  0.6670  0.0146  0.5711
18817THY    HP160884   8.560   4.782   4.397  1.4939 -2.0007 -1.0076
18817THY    CP260885   8.645   4.586   4.416  0.5513 -0.5544  0.6439
18817THY    HP260886   8.744   4.629   4.400  0.5608 -2.3827  0.0476
18817THY    HP360887   8.597   4.548   4.325  0.6830  0.2074 -1.5091
18817THY    HP460888   8.648   4.496   4.479 -1.5259 -1.2210  0.0298
18817THY    CP360889   8.587   4.741   4.612  0.0181  0.5160  0.3708
18817THY    HP560890   8.502   4.795   4.655 -1.7060 -0.0462 -1.7425
18817THY    HP660891   8.680   4.799   4.607  1.7553 -0.5758 -2.3008
18817THY    HP760892   8.605   4.652   4.673 -1.7078 -1.9081 -1.7751
18817THY    CA360893   8.343   4.572   4.548 -0.1900  0.6373 -0.3664
18817THY    HA360894   8.402   4.534   4.630 -1.7973  1.8221 -0.4227
18817THY    CA460895   8.213   4.529   4.530  0.3087  0.4650  0.6180
18817THY    HA460896   8.178   4.447   4.592  1.2266 -1.2917 -1.1610
18817THY    CA560897   8.133   4.572   4.424 -0.8073 -0.0970  0.2385
18817THY    CM160898   7.984   4.528   4.406 -1.0954  0.8684 -0.5073
18817THY    HM160899   7.937   4.578   4.320 -0.8485  1.1617  0.2343
18817THY    HM260900   7.925   4.551   4.495 -1.3727  1.0963 -1.9981
18817THY    HM360901   7.974   4.420   4.388 -1.3205 -0.0239 -0.3444
18817THY    CA660902   8.184   4.659   4.331  0.4471  0.3467  0.4837
18817THY    HA660903   8.120   4.703   4.255  0.5217 -0.0674 -0.1114
18818THY      O60904   2.609   1.465   5.454  0.2159  0.5134  0.1356
18818THY     HO60905   2.538   1.506   5.507 -0.8925  1.0920 -2.3582
18818THY    CA160906   2.731   1.491   5.506 -0.5389 -0.1828  1.0003
18818THY    CA260907   2.802   1.378   5.555  0.0239 -0.6408  0.4731
18818THY    CP160908   2.733   1.234   5.567 -0.3163  0.6416  0.1302
18818THY    HP160909   2.629   1.248   5.537 -0.7151  1.5473 -0.8236
18818THY    CP260910   2.734   1.168   5.698 -0.7180 -0.0357  0.0450
18818THY    HP260911   2.654   1.216   5.756  0.6319 -0.3277  2.8801
18818THY    HP360912   2.825   1.185   5.758 -0.8422  0.1561  0.0299
18818THY    HP460913   2.724   1.059   5.697  1.0318  0.3829 -0.1563
18818THY    CP360914   2.798   1.141   5.462 -0.3577  0.6076 -0.1693
18818THY    HP560915   2.748   1.045   5.445  0.2708  2.7470 -0.9366
18818THY    HP660916   2.905   1.133   5.483 -0.0920 -0.1878  1.0466
18818THY    HP760917   2.787   1.187   5.363 -0.9741 -0.0116 -1.5830
18818THY    CA360918   2.934   1.401   5.595 -0.8567  0.9207 -0.6906
18818THY    HA360919   2.994   1.312   5.611 -0.1328  0.7255 -0.2442
18818THY    CA460920   3.001   1.522   5.584  0.3155 -0.2084 -0.0357
18818THY    HA460921   3.109   1.530   5.592  0.3861  1.0760 -1.6531
18818THY    CA560922   2.918   1.636   5.546 -0.1720  0.3243  0.3354
18818THY    CM160923   2.974   1.772   5.564  0.2864  0.7711  0.1304
18818THY    HM160924   3.078   1.767   5.530  0.6768  1.8082  0.8244
18818THY    HM260925   2.981   1.801   5.670  0.2649  0.3855  1.6052
18818THY    HM360926   2.913   1.846   5.512 -1.3470  1.0804 -0.9384
18818THY    CA660927   2.787   1.610   5.511  0.4928  0.2301 -0.0256
18818THY    HA660928   2.723   1.694   5.485 -2.9901  0.9416 -2.2197
18819THY      O60929   7.284   8.485   6.703 -0.1374 -0.5831  0.0225
18819THY     HO60930   7.249   8.394   6.701  0.1212 -3.5641 -0.1080
18819THY    CA160931   7.183   8.569   6.734  0.5490  0.0891 -0.8334
18819THY    CA260932   7.179   8.702   6.678  0.2503 -0.3504 -0.2606
18819THY    CP160933   7.289   8.741   6.582 -0.2924  0.5635 -0.0682
18819THY    HP160934   7.329   8.648   6.540  2.2833  1.6269  0.4894
18819THY    CP260935   7.395   8.816   6.663  0.2653 -0.1890  0.3418
18819THY    HP260936   7.408   8.759   6.755  2.4249 -0.0615  0.9284
18819THY    HP360937   7.358   8.918   6.682 -1.5791  1.3325 -0.5619
18819THY    HP460938   7.498   8.815   6.623  0.5659  0.5420  1.0863
18819THY    CP360939   7.234   8.822   6.452  0.1552 -0.0228 -0.2510
18819THY    HP560940   7.316   8.845   6.382 -0.4210 -0.7782 -0.4858
18819THY    HP660941   7.202   8.924   6.478  0.5041 -0.9154  0.0909
18819THY    HP760942   7.153   8.774   6.398 -0.1240 -0.4875  0.7097
18819THY    CA360943   7.082   8.788   6.722 -0.0715  0.1196 -0.1017
18819THY    HA360944   7.084   8.885   6.672  0.0193  0.1406 -0.0923
18819THY    CA460945   6.993   8.754   6.829  0.1445 -0.0950  0.1565
18819THY    HA460946   6.911   8.821   6.854 -0.2965 -0.2141 -0.3393
18819THY    CA560947   7.009   8.628   6.891  1.0189 -0.1026 -0.0114
18819THY    CM160948   6.918   8.579   7.005 -0.6812 -0.0352  0.5428
18819THY    HM160949   6.962   8.497   7.064 -1.7454  0.5716  0.3995
18819THY    HM260950   6.830   8.545   6.950 -0.8883 -0.0190  1.0416
18819THY    HM360951   6.895   8.655   7.081 -0.9637 -0.9081  1.3479
18819THY    CA660952   7.099   8.534   6.841 -0.2835  0.3897  0.2263
18819THY    HA660953   7.102   8.434   6.883 -2.5369  0.5635  0.1879
18820THY      O60954   5.037   1.667   3.318  0.1348 -0.1182 -0.1378
18820THY     HO60955   5.114   1.725   3.309 -0.0392 -0.2854  0.0698
18820THY    CA160956   4.988   1.700   3.444  0.0067  0.4061 -0.9751
18820THY    CA260957   4.857   1.677   3.473  0.9776 -0.4185 -0.3053
18820THY    CP160958   4.761   1.617   3.380  0.1326 -0.1246  0.1544
18820THY    HP160959   4.817   1.564   3.302  2.2044  0.1220  1.8609
18820THY    CP260960   4.685   1.732   3.301 -0.5630 -0.0422  0.0790
18820THY    HP260961   4.612   1.680   3.237  1.4296 -1.3489 -1.2485
18820THY    HP360962   4.756   1.801   3.256  1.1250  1.8092 -0.3627
18820THY    HP460963   4.629   1.795   3.372 -0.8860 -2.1011  2.2388
18820THY    CP360964   4.670   1.513   3.443 -0.4065 -0.4280  0.0222
18820THY    HP560965   4.599   1.556   3.515  0.7225  3.0189 -3.2651
18820THY    HP660966   4.731   1.455   3.514 -0.3340  0.4336  1.0970
18820THY    HP760967   4.616   1.450   3.372 -1.1964  1.7175 -1.8492
18820THY    CA360968   4.814   1.714   3.601 -0.7328  0.1578  0.8374
18820THY    HA360969   4.717   1.692   3.646  0.1914  1.1088 -1.6566
18820THY    CA460970   4.910   1.771   3.686  0.0477  0.4138  0.2993
18820THY    HA460971   4.882   1.800   3.786  4.1266  1.5898  0.7778
18820THY    CA560972   5.048   1.785   3.653  0.7999  0.4877 -0.0766
18820THY    CM160973   5.154   1.838   3.755 -0.2430  0.0543 -0.1163
18820THY    HM160974   5.185   1.764   3.830 -1.6058 -0.2990 -1.0970
18820THY    HM260975   5.111   1.921   3.812 -0.1236  0.4340 -0.3120
18820THY    HM360976   5.242   1.884   3.709  1.6565  1.4624 -2.1177
18820THY    CA660977   5.087   1.753   3.527 -0.5838  0.0775  0.9649
18820THY    HA660978   5.191   1.757   3.495 -0.6829 -0.6516 -1.0225
18821THY      O60979   8.531   5.527   2.369 -0.3090 -0.1028 -0.1079
18821THY     HO60980   8.599   5.475   2.324  0.4097 -2.6403  2.7404
18821THY    CA160981   8.587   5.647   2.359  0.0760 -0.2359 -0.5150
18821THY    CA260982   8.501   5.761   2.364 -0.1914 -0.7026 -0.2315
18821THY    CP160983   8.351   5.744   2.397 -0.1020 -0.0988 -0.9877
18821THY    HP160984   8.326   5.667   2.471 -1.5955 -0.1557 -0.6045
18821THY    CP260985   8.270   5.721   2.274  0.0105 -0.0255 -0.1336
18821THY    HP260986   8.163   5.702   2.291  0.2968  1.2444 -0.7160
18821THY    HP360987   8.300   5.637   2.211 -0.5939 -1.1223  0.4489
18821THY    HP460988   8.272   5.812   2.212 -0.9728 -0.5652 -0.4674
18821THY    CP360989   8.286   5.873   2.466 -0.6292 -0.6797  0.2053
18821THY    HP560990   8.187   5.853   2.509 -0.6227 -2.1498 -4.0091
18821THY    HP660991   8.275   5.956   2.395 -4.3893  0.1366  0.5658
18821THY    HP760992   8.355   5.919   2.539  0.4398 -0.6321 -1.3994
18821THY    CA360993   8.552   5.890   2.323  0.9315  0.0667  0.6990
18821THY    HA360994   8.475   5.965   2.303 -1.4154  1.2540 -1.2448
18821THY    CA460995   8.683   5.897   2.300 -0.1011  0.5692 -0.9626
18821THY    HA460996   8.733   5.993   2.295 -1.1408  1.0986 -0.3867
18821THY    CA560997   8.773   5.791   2.316 -0.0614  0.4742  0.2151
18821THY    CM160998   8.915   5.794   2.288  0.2823  0.1174 -0.1499
18821THY    HM160999   8.934   5.901   2.274  0.2204  2.7192  0.2577
18821THY    HM261000   8.949   5.738   2.200 -0.4952 -1.1179  1.2483
18821THY    HM361001   8.968   5.746   2.372  1.7814 -1.1750 -0.8587
18821THY    CA661002   8.723   5.661   2.334  0.0804 -0.4302 -0.2905
18821THY    HA661003   8.784   5.571   2.338 -1.8746 -0.0196 -1.6740
18822THY      O61004   0.877   1.318   2.450 -0.3737  0.3674 -0.0523
18822THY     HO61005   0.804   1.288   2.507 -0.0146  0.8302 -0.0525
18822THY    CA161006   0.984   1.303   2.537  0.0298 -0.0718  0.8276
18822THY    CA261007   1.116   1.268   2.490  0.5568 -0.4028 -0.8260
18822THY    CP161008   1.146   1.287   2.335  0.0444  0.3058  0.3059
18822THY    HP161009   1.096   1.380   2.303 -1.2859  1.1418 -0.0952
18822THY    CP261010   1.084   1.172   2.264 -0.4422  0.3943  0.6188
18822THY    HP261011   1.123   1.078   2.305 -1.7295  1.3255  0.4604
18822THY    HP361012   1.110   1.189   2.159 -0.6333  0.5082  1.6622
18822THY    HP461013   0.974   1.172   2.268 -0.5511 -0.3832 -2.3921
18822THY    CP361014   1.295   1.303   2.292  0.6123  0.0507 -0.1995
18822THY    HP561015   1.311   1.334   2.188  0.9396  0.0329 -0.4246
18822THY    HP661016   1.336   1.202   2.295 -1.5458 -1.5313 -1.1895
18822THY    HP761017   1.354   1.373   2.353 -1.2591 -2.1164  3.5645
18822THY    CA361018   1.216   1.240   2.586 -0.6051  0.1590  0.1645
18822THY    HA361019   1.319   1.220   2.557  0.1985  2.2479  0.9655
18822THY    CA461020   1.183   1.238   2.722 -0.0465 -0.4786 -0.7562
18822THY    HA461021   1.271   1.213   2.780  0.1947 -0.5876 -0.1931
18822THY    CA561022   1.053   1.259   2.763  0.2280  0.0141  0.0700
18822THY    CM161023   1.014   1.228   2.903 -0.3206  0.4416 -0.5157
18822THY    HM161024   1.072   1.295   2.969 -0.5524 -0.8783  1.0695
18822THY    HM261025   1.064   1.132   2.919  2.9433  0.0471  0.9465
18822THY    HM361026   0.908   1.229   2.927 -0.8198 -1.4849  1.2341
18822THY    CA661027   0.951   1.295   2.674 -0.4709  0.1171  0.6868
18822THY    HA661028   0.848   1.303   2.707 -1.3298 -2.6077  2.2822
18823THY      O61029   6.076   0.313   2.854  0.1066 -0.1031 -0.0023
18823THY     HO61030   6.068   0.216   2.848 -1.1455 -1.0075  0.1306
18823THY    CA161031   6.043   0.361   2.733 -0.4301 -0.3476  0.4885
18823THY    CA261032   6.030   0.500   2.711  0.4438 -0.1316 -0.1368
18823THY    CP161033   6.041   0.597   2.827  0.1706  0.1330  0.1380
18823THY    HP161034   6.135   0.581   2.880  0.9125 -0.4533  2.1833
18823THY    CP261035   5.929   0.589   2.932 -0.1173 -0.6206 -0.5627
18823THY    HP261036   5.829   0.616   2.897  0.1954  1.0101  3.2873
18823THY    HP361037   5.946   0.658   3.015  1.9776 -0.6878 -0.9129
18823THY    HP461038   5.906   0.492   2.978  0.9441 -0.5237 -0.7839
18823THY    CP361039   6.056   0.749   2.801  0.3501  0.5128  0.0780
18823THY    HP561040   5.957   0.790   2.779  1.0447  3.2288  3.7303
18823THY    HP661041   6.124   0.772   2.718  0.7197  0.6864 -0.3778
18823THY    HP761042   6.090   0.800   2.892  0.7402 -0.7321  2.1640
18823THY    CA361043   5.986   0.541   2.582  0.4892 -0.2599  0.6241
18823THY    HA361044   5.971   0.645   2.554 -1.3244 -0.8008  0.2444
18823THY    CA461045   5.956   0.444   2.477 -0.4100 -0.3862 -0.4358
18823THY    HA461046   5.913   0.481   2.384 -1.9822  0.3611 -0.3246
18823THY    CA561047   5.979   0.303   2.506 -0.6231  0.0357  0.1492
18823THY    CM161048   5.953   0.201   2.396  0.1109 -0.0143 -0.8792
18823THY    HM161049   5.913   0.109   2.442  3.1383  1.9283 -1.3655
18823THY    HM261050   6.047   0.180   2.343  0.9309  1.5011 -1.1551
18823THY    HM361051   5.877   0.226   2.320  1.3488 -1.0185 -0.0419
18823THY    CA661052   6.023   0.265   2.633 -0.4505  0.6512  0.0709
18823THY    HA661053   6.037   0.160   2.654 -1.0651  0.9964  0.0537
18824THY      O61054   1.390   1.853   4.914 -0.4633 -0.0771 -0.1557
18824THY     HO61055   1.417   1.765   4.945 -0.0888 -0.7591 -0.2887
18824THY    CA161056   1.507   1.927   4.925 -0.4167 -0.9148 -0.2650
18824THY    CA261057   1.517   2.063   4.895 -0.0779 -0.1670  0.1709
18824THY    CP161058   1.400   2.144   4.846  0.0504  1.0631  0.4707
18824THY    HP161059   1.309   2.100   4.889  1.2150  1.7111 -1.3759
18824THY    CP261060   1.383   2.126   4.688 -0.2791 -0.2145 -0.1085
18824THY    HP261061   1.471   2.172   4.643  0.5758  1.7025  0.2205
18824THY    HP361062   1.292   2.169   4.643  1.1194 -1.1880  2.0146
18824THY    HP461063   1.397   2.020   4.666  2.5745 -3.8917  0.8199
18824THY    CP361064   1.396   2.296   4.894  0.0283  0.8135 -0.3091
18824THY    HP561065   1.312   2.347   4.845 -0.6587  3.0584  0.8386
18824THY    HP661066   1.484   2.354   4.867  2.6309 -0.7047 -4.5254
18824THY    HP761067   1.379   2.302   5.002 -1.8019  0.4995  1.2558
18824THY    CA361068   1.645   2.129   4.911  0.5902 -0.4276  0.1913
18824THY    HA361069   1.656   2.233   4.882 -0.8986  0.4256  0.6101
18824THY    CA461070   1.757   2.063   4.942  0.0052 -1.0999  0.5939
18824THY    HA461071   1.856   2.106   4.939  0.9592  2.0965 -1.0524
18824THY    CA561072   1.746   1.922   4.970  0.0015 -0.1284 -0.0342
18824THY    CM161073   1.872   1.840   4.983 -0.0550 -0.0637  0.0558
18824THY    HM161074   1.966   1.896   4.990  0.7682  1.8752 -1.4408
18824THY    HM261075   1.884   1.753   4.918  2.5471  1.6867 -1.0223
18824THY    HM361076   1.877   1.783   5.077  0.7524  0.4236  0.9190
18824THY    CA661077   1.626   1.856   4.956  0.0253  0.3296  0.5283
18824THY    HA661078   1.618   1.750   4.976 -1.1562  1.6840  0.8314
18825THY      O61079   4.700   5.843   4.055 -0.0253 -0.2111  0.5511
18825THY     HO61080   4.757   5.873   3.981  1.6253  1.2155  1.0732
18825THY    CA161081   4.629   5.735   4.020 -0.3782  0.6379  0.5089
18825THY    CA261082   4.569   5.657   4.118 -0.2841 -0.0139  0.2152
18825THY    CP161083   4.591   5.693   4.267  0.0302 -1.1780 -0.1039
18825THY    HP161084   4.586   5.802   4.276 -1.1299 -1.0710 -0.1586
18825THY    CP261085   4.726   5.646   4.333  0.8662  0.2137 -0.2129
18825THY    HP261086   4.719   5.537   4.329  0.9295 -3.4268 -0.2091
18825THY    HP361087   4.733   5.674   4.438  0.6927  0.2063 -0.1350
18825THY    HP461088   4.819   5.666   4.279  0.1999 -0.6239  0.7491
18825THY    CP361089   4.481   5.650   4.370  0.3657  0.1697  0.3109
18825THY    HP561090   4.393   5.667   4.308  2.0386 -1.7299  2.7021
18825THY    HP661091   4.466   5.721   4.452 -0.5293 -1.2489  1.8324
18825THY    HP761092   4.478   5.544   4.398  0.4099  1.1021  0.5401
18825THY    CA361093   4.494   5.548   4.083  0.2376  0.3515  0.5836
18825THY    HA361094   4.447   5.482   4.155 -0.1781 -1.2930 -1.0348
18825THY    CA461095   4.473   5.522   3.949 -0.1507 -0.1439  0.1505
18825THY    HA461096   4.414   5.431   3.938  0.0941  4.3416 -0.8135
18825THY    CA561097   4.532   5.595   3.850  0.2208  0.6105 -0.4171
18825THY    CM161098   4.515   5.549   3.697  0.1469 -0.4761 -0.4198
18825THY    HM161099   4.416   5.502   3.684  0.2002  0.9630 -0.9968
18825THY    HM261100   4.595   5.485   3.660 -0.3550 -0.6815 -0.9424
18825THY    HM361101   4.496   5.632   3.628 -0.8328  0.6009  0.2869
18825THY    CA661102   4.611   5.701   3.887  0.3317  0.0039 -0.7818
18825THY    HA661103   4.671   5.754   3.814  1.0735  1.0444 -0.1443
18826THY      O61104   1.987   5.143   7.373  0.1998  0.0289  0.8519
18826THY     HO61105   1.974   5.222   7.428 -0.7900  2.3651 -0.8321
18826THY    CA161106   1.860   5.126   7.319  0.3802  0.3303  0.7292
18826THY    CA261107   1.831   5.031   7.220  0.5186 -0.6583  0.2005
18826THY    CP161108   1.933   4.932   7.177 -0.2135  0.1119  0.6675
18826THY    HP161109   2.003   4.924   7.261  0.2198 -0.1135  1.9268
18826THY    CP261110   2.014   4.985   7.059 -0.6709  0.0047 -0.1378
18826THY    HP261111   2.119   4.953   7.066 -1.2729  2.1276 -1.8750
18826THY    HP361112   2.020   5.094   7.071 -0.5668  4.2252 -0.4593
18826THY    HP461113   1.967   4.961   6.963 -1.0934  0.2897 -0.4754
18826THY    CP361114   1.897   4.785   7.155  0.2578 -0.3589 -0.1778
18826THY    HP561115   1.842   4.744   7.240  1.1298  0.2773 -0.0456
18826THY    HP661116   1.985   4.726   7.128  0.9921  0.8738  0.3404
18826THY    HP761117   1.829   4.771   7.070 -1.0189  0.3633  1.3172
18826THY    CA361118   1.695   5.017   7.172 -0.7362  0.1209  0.4699
18826THY    HA361119   1.666   4.943   7.098  1.3130  0.4299 -0.7338
18826THY    CA461120   1.606   5.111   7.205  0.6742 -0.5986  0.5716
18826THY    HA461121   1.505   5.112   7.165 -0.4123  1.9033 -0.6047
18826THY    CA561122   1.637   5.212   7.297 -0.1982  0.4011  0.5848
18826THY    CM161123   1.536   5.314   7.338 -0.4510  0.5164  0.6247
18826THY    HM161124   1.579   5.414   7.323 -1.8729 -0.3792  1.1424
18826THY    HM261125   1.510   5.303   7.443 -0.8033  0.3208 -0.4835
18826THY    HM361126   1.439   5.295   7.290  0.6204 -0.9115 -1.6194
18826THY    CA661127   1.766   5.218   7.350 -0.0121 -0.2440  0.0294
18826THY    HA661128   1.789   5.295   7.423  1.3911  1.1682 -1.6320
18827THY      O61129   3.057   5.385   3.632  0.2050 -0.1078  0.9564
18827THY     HO61130   3.079   5.290   3.636  1.6843  0.7365  1.2997
18827THY    CA161131   3.084   5.427   3.510  0.2969  0.7749  0.9238
18827THY    CA261132   3.016   5.540   3.454 -0.0338  0.1389  0.1297
18827THY    CP161133   2.913   5.610   3.535  0.4434  0.0314  0.3377
18827THY    HP161134   2.867   5.544   3.609  0.7265 -0.1871 -0.1065
18827THY    CP261135   2.790   5.656   3.455 -1.1842 -0.1165 -0.5702
18827THY    HP261136   2.706   5.675   3.523 -0.8954 -0.0783  0.6261
18827THY    HP361137   2.764   5.583   3.378 -2.1143 -1.5002  1.1536
18827THY    HP461138   2.792   5.751   3.401  0.0568  0.8391 -0.0119
18827THY    CP361139   2.973   5.718   3.617 -0.0040 -0.6248 -0.6310
18827THY    HP561140   3.010   5.786   3.539  0.4471 -0.0037 -0.1510
18827THY    HP661141   3.056   5.675   3.673  1.3407 -1.2258  1.0768
18827THY    HP761142   2.901   5.755   3.691  0.6507  1.0491 -2.5169
18827THY    CA361143   3.041   5.572   3.317  0.1261  0.8094 -0.1889
18827THY    HA361144   2.976   5.640   3.264  0.0055 -0.8948 -1.5499
18827THY    CA461145   3.132   5.494   3.242 -0.3617 -0.0058  0.0436
18827THY    HA461146   3.161   5.523   3.141  0.5674  0.3536  0.4384
18827THY    CA561147   3.202   5.382   3.301 -0.3006  0.2505  0.6214
18827THY    CM161148   3.309   5.303   3.227  1.2441 -0.0289 -0.6513
18827THY    HM161149   3.320   5.330   3.121  3.6640 -0.0770 -1.5320
18827THY    HM261150   3.298   5.194   3.237  2.0694 -3.0366 -1.1205
18827THY    HM361151   3.402   5.339   3.271  0.8750 -0.2102  0.5535
18827THY    CA661152   3.177   5.349   3.433 -0.1903 -0.7998 -0.1184
18827THY    HA661153   3.226   5.266   3.483 -2.0953 -0.6498 -1.2234
18828THY      O61154   2.430   2.976   4.523  0.3119  0.1026  0.0503
18828THY     HO61155   2.493   3.046   4.549  0.6841  1.7904 -0.8651
18828THY    CA161156   2.308   3.026   4.541  0.1343 -0.1362 -0.2453
18828THY    CA261157   2.189   2.952   4.556  0.3426  0.3100  0.3601
18828THY    CP161158   2.201   2.799   4.534  1.1952 -0.2919 -0.0468
18828THY    HP161159   2.301   2.755   4.525  0.6600  0.6021 -1.5104
18828THY    CP261160   2.131   2.778   4.394  0.0376  0.4286  0.1262
18828THY    HP261161   2.176   2.832   4.310 -1.3171  1.0153  2.3299
18828THY    HP361162   2.034   2.829   4.386  0.9795 -2.3296  1.7490
18828THY    HP461163   2.111   2.676   4.361 -0.0357 -1.3934  0.6953
18828THY    CP361164   2.131   2.718   4.644 -0.2667 -1.3308  0.3553
18828THY    HP561165   2.025   2.742   4.647 -0.4763  2.4098 -0.3868
18828THY    HP661166   2.169   2.731   4.747 -1.8680 -0.8025  1.0466
18828THY    HP761167   2.147   2.615   4.609 -0.7916 -0.2135 -0.1220
18828THY    CA361168   2.062   3.013   4.586  0.3803  0.0036 -0.2778
18828THY    HA361169   1.971   2.956   4.601 -0.6097  2.3517  1.7370
18828THY    CA461170   2.064   3.150   4.610  0.2672 -0.6558 -0.1522
18828THY    HA461171   1.977   3.204   4.645  0.1706 -1.1151 -0.0067
18828THY    CA561172   2.180   3.219   4.599  0.0495 -0.1672  0.9644
18828THY    CM161173   2.189   3.361   4.651  0.5895 -0.1232  0.5515
18828THY    HM161174   2.108   3.427   4.617 -0.6961  1.9443  0.1303
18828THY    HM261175   2.286   3.406   4.627  0.8772  0.4427  0.2457
18828THY    HM361176   2.194   3.364   4.760  0.2041 -0.0642 -0.7304
18828THY    CA661177   2.303   3.162   4.566  0.4601 -0.4741 -0.1643
18828THY    HA661178   2.394   3.223   4.563 -1.5414 -1.3088  3.0156
18829THY      O61179   1.318   4.358   3.319  0.4611  0.2714 -0.7103
18829THY     HO61180   1.320   4.452   3.341  0.1591 -1.8174 -0.1641
18829THY    CA161181   1.331   4.284   3.425 -0.0236  0.4629 -0.1295
18829THY    CA261182   1.327   4.142   3.410 -0.6668  0.4920  0.4124
18829THY    CP161183   1.276   4.071   3.285  0.0991  0.2746 -0.0349
18829THY    HP161184   1.307   4.124   3.194 -0.2434  1.1167  1.6883
18829THY    CP261185   1.120   4.058   3.296 -0.3170 -0.3011 -0.6787
18829THY    HP261186   1.083   4.011   3.204  0.0593  0.1604 -1.9436
18829THY    HP361187   1.063   4.149   3.316 -2.5598 -0.5326 -1.9657
18829THY    HP461188   1.094   3.983   3.372 -1.0551 -1.1741 -1.3272
18829THY    CP361189   1.342   3.928   3.267  0.2528  0.4096 -1.1590
18829THY    HP561190   1.304   3.911   3.166  0.4528 -0.2121  1.5541
18829THY    HP661191   1.305   3.851   3.335 -0.0393  0.0339 -1.3481
18829THY    HP761192   1.452   3.937   3.266  0.0812  0.7106  2.6448
18829THY    CA361193   1.358   4.066   3.525  0.4627  0.0741 -0.3063
18829THY    HA361194   1.352   3.957   3.523  2.2616 -1.0070 -0.4335
18829THY    CA461195   1.381   4.128   3.649 -0.5902  0.5185 -0.5626
18829THY    HA461196   1.410   4.063   3.731  2.2132  0.8687  0.9927
18829THY    CA561197   1.404   4.270   3.651 -0.8177 -0.0589  0.8418
18829THY    CM161198   1.455   4.338   3.782 -0.6440  0.3001  0.2379
18829THY    HM161199   1.562   4.328   3.803 -0.6366  0.0446 -0.2643
18829THY    HM261200   1.397   4.290   3.862 -0.1467 -0.2817 -1.4147
18829THY    HM361201   1.439   4.446   3.790  3.1769  0.5038  0.9076
18829THY    CA661202   1.368   4.349   3.548 -0.5262  0.8717  0.2709
18829THY    HA661203   1.394   4.454   3.548 -1.2594 -2.5210  0.5698
18830THY      O61204   5.858   2.281   3.842  0.6055  0.0429  0.1233
18830THY     HO61205   5.945   2.310   3.874  1.0471  1.6284 -2.6971
18830THY    CA161206   5.849   2.336   3.722 -0.3185 -0.0128 -0.0642
18830THY    CA261207   5.727   2.333   3.650  0.2995 -0.2487  0.1140
18830THY    CP161208   5.598   2.284   3.717 -0.4868  0.1637 -0.1980
18830THY    HP161209   5.587   2.283   3.826  1.6548  0.4247 -1.3462
18830THY    CP261210   5.583   2.128   3.679 -0.1512 -0.1390 -0.2223
18830THY    HP261211   5.580   2.106   3.572 -0.9284 -0.0199 -0.7799
18830THY    HP361212   5.484   2.086   3.704  0.2902  0.5998 -0.8390
18830THY    HP461213   5.661   2.067   3.726  0.2090  2.0448  1.7820
18830THY    CP361214   5.485   2.365   3.664  0.3280  0.5848 -0.7465
18830THY    HP561215   5.493   2.465   3.707 -0.5324 -0.6406 -0.1172
18830THY    HP661216   5.384   2.326   3.685 -0.2305 -0.7328 -0.0993
18830THY    HP761217   5.491   2.381   3.556  1.8384  0.6690 -0.6016
18830THY    CA361218   5.729   2.378   3.515 -1.1601  0.2876 -0.5001
18830THY    HA361219   5.649   2.375   3.442 -0.4920 -0.4302 -1.5710
18830THY    CA461220   5.845   2.429   3.461 -1.4424  0.2880 -0.7573
18830THY    HA461221   5.852   2.471   3.361  0.6067  1.2934  1.5387
18830THY    CA561222   5.968   2.432   3.541 -0.6913  0.2901  0.3970
18830THY    CM161223   6.099   2.496   3.500 -0.7899 -0.1870  0.0377
18830THY    HM161224   6.154   2.541   3.583  0.7580 -0.1293 -1.7894
18830THY    HM261225   6.074   2.570   3.423 -1.3772  0.1809  0.2256
18830THY    HM361226   6.168   2.436   3.439  2.6144  1.3046  2.1496
18830THY    CA661227   5.963   2.380   3.671 -0.3800 -0.5254 -0.8930
18830THY    HA661228   6.050   2.387   3.736 -0.3247 -0.3732 -2.6463
18831THY      O61229   9.120   6.346   5.952  0.1242 -0.9167  0.0498
18831THY     HO61230   9.173   6.421   5.984  2.6136 -0.4906 -1.7299
18831THY    CA161231   9.146   6.234   6.022  0.7858  0.6100  0.6803
18831THY    CA261232   9.042   6.144   6.067 -0.2830  0.8227 -0.1292
18831THY    CP161233   8.901   6.172   6.041 -0.3333 -0.0821  0.2062
18831THY    HP161234   8.896   6.240   5.955  0.9877 -0.3295  0.0141
18831THY    CP261235   8.837   6.245   6.162 -0.3987  0.5120  0.8472
18831THY    HP261236   8.842   6.353   6.144 -0.2411  1.4229  0.9951
18831THY    HP361237   8.876   6.216   6.260  0.4533 -0.6511 -2.3958
18831THY    HP461238   8.731   6.221   6.169  0.2969  4.4180 -1.9209
18831THY    CP361239   8.833   6.044   6.001 -0.1744  0.0055 -0.6049
18831THY    HP561240   8.740   6.080   5.957 -0.5376  0.0676 -1.4558
18831THY    HP661241   8.816   5.972   6.082 -0.7083 -0.8330 -1.4482
18831THY    HP761242   8.890   5.985   5.929  0.8149  0.8534 -0.7200
18831THY    CA361243   9.079   6.033   6.147 -0.3123  0.0865 -0.8906
18831THY    HA361244   9.005   5.967   6.191 -1.0720 -1.6878 -1.2684
18831THY    CA461245   9.218   6.022   6.176 -0.3103  0.4032 -0.4477
18831THY    HA461246   9.245   5.946   6.249 -1.2832  0.1803 -1.0210
18831THY    CA561247   9.316   6.115   6.134 -0.2869  0.2096 -0.2537
18831THY    CM161248   9.457   6.102   6.182  0.2115  0.4358  0.7615
18831THY    HM161249   9.526   6.181   6.152  1.3144 -1.3348 -0.7982
18831THY    HM261250   9.492   6.012   6.130  0.1562 -0.2214  1.1177
18831THY    HM361251   9.453   6.075   6.288  2.9157  0.0847 -1.5479
18831THY    CA661252   9.282   6.214   6.047 -0.3942  0.2620 -0.0761
18831THY    HA661253   9.357   6.284   6.010  0.2709  0.8392 -0.4735
18832THY      O61254   3.163   3.577   6.624  0.6291  0.1241 -0.0184
18832THY     HO61255   3.239   3.537   6.670 -0.2812 -0.1841 -2.2140
18832THY    CA161256   3.051   3.504   6.643 -0.4834  0.6070  0.5015
18832THY    CA261257   2.955   3.487   6.540 -0.1356  0.1740 -0.1412
18832THY    CP161258   2.974   3.561   6.401 -0.5556  0.0657  0.4999
18832THY    HP161259   3.061   3.627   6.396  0.6651  1.5803 -0.8902
18832THY    CP261260   2.843   3.640   6.375  0.3764  0.1538 -0.6034
18832THY    HP261261   2.825   3.713   6.455 -0.8336  1.5911 -2.3874
18832THY    HP361262   2.756   3.573   6.378  0.5087 -3.4281 -1.0963
18832THY    HP461263   2.862   3.691   6.281  2.4973  0.7341 -0.2514
18832THY    CP361264   2.992   3.464   6.285  0.7040  0.1566  0.9556
18832THY    HP561265   3.072   3.392   6.300  0.7841  0.7587  1.1691
18832THY    HP661266   3.031   3.515   6.196  1.1020 -0.6124 -0.6371
18832THY    HP761267   2.903   3.407   6.255  1.8105 -0.3176 -0.5916
18832THY    CA361268   2.848   3.393   6.556  0.3090 -0.7956  0.5761
18832THY    HA361269   2.781   3.364   6.476 -0.0484  0.7266 -3.4604
18832THY    CA461270   2.839   3.336   6.689  0.0470  0.3616  0.4129
18832THY    HA461271   2.753   3.272   6.704  0.1420  0.4269  0.3005
18832THY    CA561272   2.931   3.367   6.797  0.5414  0.5428  0.0675
18832THY    CM161273   2.921   3.302   6.935 -0.0715 -0.8905  0.1098
18832THY    HM161274   2.874   3.205   6.916 -0.4654 -1.9978  0.4983
18832THY    HM261275   2.856   3.359   7.003  1.4676 -0.4847  1.4379
18832THY    HM361276   3.019   3.282   6.978 -0.0597  0.3061  2.4278
18832THY    CA661277   3.038   3.452   6.769  0.1066  0.4928  0.5431
18832THY    HA661278   3.119   3.457   6.841  1.4754 -0.7130 -2.1735
18833THY      O61279   4.719   8.046   2.161 -0.1376 -0.0061 -0.4102
18833THY     HO61280   4.644   8.106   2.146  0.2910 -3.5524 -0.5467
18833THY    CA161281   4.836   8.116   2.148  0.0780  0.6495  0.0429
18833THY    CA261282   4.947   8.089   2.231  0.4036 -0.9598 -0.2231
18833THY    CP161283   4.951   7.968   2.320  0.0489  0.7233 -0.1724
18833THY    HP161284   4.886   7.888   2.283 -0.3328 -0.7119  0.7612
18833THY    CP261285   4.909   7.983   2.460  0.0160 -0.6145 -0.3920
18833THY    HP261286   4.902   7.888   2.515 -2.5117 -0.4068 -0.1565
18833THY    HP361287   4.816   8.040   2.473 -0.2730 -1.9368 -0.5488
18833THY    HP461288   4.983   8.049   2.507 -0.8218  0.7191 -0.3605
18833THY    CP361289   5.091   7.899   2.308  0.4981  1.0794 -0.9408
18833THY    HP561290   5.126   7.909   2.205 -0.0046  0.7784 -2.1510
18833THY    HP661291   5.082   7.794   2.337 -3.5325  0.9888 -0.7813
18833THY    HP761292   5.171   7.963   2.345 -0.5564 -1.0333  1.8274
18833THY    CA361293   5.057   8.176   2.223  0.2788  0.1404 -0.3748
18833THY    HA361294   5.140   8.160   2.291  0.9403 -0.8766 -1.4637
18833THY    CA461295   5.063   8.280   2.131  0.6143 -0.3619  0.1277
18833THY    HA461296   5.146   8.350   2.125 -0.7524 -2.1723  1.6996
18833THY    CA561297   4.949   8.309   2.048  0.0129 -0.7227 -1.1793
18833THY    CM161298   4.957   8.434   1.961  0.1763 -0.2021  0.8364
18833THY    HM161299   4.934   8.385   1.866 -1.0508  1.6196 -2.4652
18833THY    HM261300   5.060   8.473   1.961  0.9963 -3.4114 -0.9696
18833THY    HM361301   4.885   8.512   1.986 -1.2790 -2.3342  0.2473
18833THY    CA661302   4.832   8.227   2.055  0.0133  0.5988  0.6908
18833THY    HA661303   4.740   8.250   2.002  0.9437 -1.5504 -0.2828
18834THY      O61304   8.726   8.816   7.735 -0.1527  1.0769  0.0185
18834THY     HO61305   8.667   8.824   7.658  0.5676  0.5481  0.3955
18834THY    CA161306   8.821   8.736   7.678 -0.1703 -0.4776 -0.4878
18834THY    CA261307   8.942   8.705   7.741  0.0379  0.7405 -0.3840
18834THY    CP161308   8.974   8.762   7.876  0.2755  0.0161 -0.0269
18834THY    HP161309   8.879   8.795   7.921 -0.1080 -0.1534 -0.8726
18834THY    CP261310   9.072   8.878   7.873 -0.1289  0.5270  0.0325
18834THY    HP261311   9.045   8.967   7.814  2.4978  1.0332  1.2508
18834THY    HP361312   9.171   8.841   7.845 -0.3772  0.4014 -0.5481
18834THY    HP461313   9.089   8.907   7.977  1.6059  1.1294 -2.7841
18834THY    CP361314   9.028   8.653   7.964 -0.7549 -0.2501 -0.2107
18834THY    HP561315   9.126   8.612   7.936  0.9774 -0.0226  3.4250
18834THY    HP661316   8.955   8.572   7.977 -1.7740  1.1840  0.8982
18834THY    HP761317   9.033   8.690   8.067  1.5672 -0.9609  1.7149
18834THY    CA361318   9.038   8.627   7.673 -0.0725  0.2063  0.0874
18834THY    HA361319   9.140   8.615   7.707  0.4929 -1.7701 -1.1317
18834THY    CA461320   8.997   8.583   7.542 -0.0619 -0.0470 -0.4113
18834THY    HA461321   9.069   8.517   7.495  0.8616  0.6449  0.0795
18834THY    CA561322   8.870   8.612   7.486 -0.4488 -1.1522  0.7082
18834THY    CM161323   8.823   8.554   7.357  0.1416 -0.4003 -0.5527
18834THY    HM161324   8.843   8.628   7.278  1.9455  1.0042  0.5315
18834THY    HM261325   8.713   8.549   7.354  0.1642  0.7815 -3.6337
18834THY    HM361326   8.855   8.453   7.329 -0.6031  2.7732 -1.7684
18834THY    CA661327   8.785   8.687   7.556 -0.3435 -0.6046 -0.0139
18834THY    HA661328   8.693   8.726   7.513 -0.0901  1.5049  3.2811
18835THY      O61329   8.409   2.557   5.439  0.2307 -0.2848 -0.6364
18835THY     HO61330   8.412   2.653   5.428 -2.4626  1.1722 -0.2700
18835THY    CA161331   8.516   2.505   5.392  0.1057 -0.1873  0.8326
18835THY    CA261332   8.527   2.374   5.338  0.3977  0.6139  0.8935
18835THY    CP161333   8.407   2.278   5.332  0.2860 -0.0427  0.3167
18835THY    HP161334   8.318   2.332   5.365 -0.5191 -0.0518 -0.9677
18835THY    CP261335   8.422   2.163   5.429  0.1293  0.0536  1.2898
18835THY    HP261336   8.413   2.207   5.529 -1.8646  0.8599 -0.7029
18835THY    HP361337   8.516   2.106   5.421 -0.5829 -1.8450  0.2910
18835THY    HP461338   8.339   2.092   5.420  0.6631 -1.1178  0.8014
18835THY    CP361339   8.387   2.220   5.187 -0.0217  0.1323 -0.7008
18835THY    HP561340   8.293   2.164   5.180 -0.7226 -0.8417  0.5374
18835THY    HP661341   8.462   2.155   5.140  0.8440  0.6762 -0.1141
18835THY    HP761342   8.374   2.306   5.120 -2.4020  0.4717 -0.7281
18835THY    CA361343   8.650   2.328   5.285  0.7486  0.2857 -0.1829
18835THY    HA361344   8.666   2.226   5.252  2.4534  0.4032  0.0138
18835THY    CA461345   8.755   2.411   5.290  0.4782 -0.4788 -0.8911
18835THY    HA461346   8.846   2.375   5.242  0.8468 -0.2820 -0.2426
18835THY    CA561347   8.748   2.540   5.354 -0.3923  0.3064  0.2891
18835THY    CM161348   8.869   2.622   5.365 -0.4483 -0.6941  0.5621
18835THY    HM161349   8.955   2.557   5.385 -0.4070 -0.0401  0.8075
18835THY    HM261350   8.857   2.693   5.448 -1.4053  0.5931 -1.0365
18835THY    HM361351   8.894   2.679   5.275  2.6544 -1.0117 -1.1148
18835THY    CA661352   8.633   2.583   5.404  0.3092  0.0550 -0.0728
18835THY    HA661353   8.625   2.670   5.468  0.1513  1.3314 -1.0003
18836THY      O61354   8.465   0.544   2.374  1.1378  0.6085 -0.4139
18836THY     HO61355   8.470   0.641   2.382 -0.9483  0.6972 -0.2557
18836THY    CA161356   8.584   0.492   2.426 -0.0322  0.0319  0.3172
18836THY    CA261357   8.654   0.386   2.360  0.3307  0.0116 -0.5321
18836THY    CP161358   8.600   0.326   2.229  0.4070 -0.8059  0.0046
18836THY    HP161359   8.495   0.357   2.222  0.2605 -0.9773 -0.5222
18836THY    CP261360   8.598   0.172   2.227 -0.3946 -0.1026  0.1614
18836THY    HP261361   8.567   0.142   2.328 -0.2313  0.5887  2.1489
18836THY    HP361362   8.699   0.135   2.207 -0.6898 -1.9455  0.2287
18836THY    HP461363   8.530   0.131   2.151 -0.0562  0.1557 -0.9238
18836THY    CP361364   8.676   0.372   2.107  0.0030  0.5162 -0.2301
18836THY    HP561365   8.650   0.476   2.086  1.2578 -1.0162 -0.1849
18836THY    HP661366   8.644   0.310   2.023 -0.5585  0.4232  0.1877
18836THY    HP761367   8.783   0.353   2.122  0.1255 -0.7340 -0.5684
18836THY    CA361368   8.775   0.340   2.410 -0.0896 -0.3157 -0.9048
18836THY    HA361369   8.833   0.261   2.363  2.4536  1.0288  0.0292
18836THY    CA461370   8.828   0.401   2.530 -0.0444 -0.5500 -0.3465
18836THY    HA461371   8.915   0.362   2.582 -0.9941  0.4440 -1.2248
18836THY    CA561372   8.754   0.501   2.590 -0.0108 -0.4342 -0.2932
18836THY    CM161373   8.783   0.547   2.722 -1.0167  0.3370 -0.3008
18836THY    HM161374   8.819   0.649   2.710  0.9129 -0.5360 -1.0394
18836THY    HM261375   8.867   0.490   2.763 -0.7784  1.7025  0.9900
18836THY    HM361376   8.696   0.550   2.788 -1.5458 -0.3953  1.7304
18836THY    CA661377   8.638   0.551   2.537  0.4827  1.1976 -0.6002
18836THY    HA661378   8.581   0.629   2.586  1.2294 -0.9839  1.4241
18837THY      O61379   6.495   4.802   5.114 -0.0124  0.5864  0.2474
18837THY     HO61380   6.408   4.774   5.147 -1.4795 -1.2959  2.2284
18837THY    CA161381   6.551   4.699   5.044  0.3552 -0.4638 -0.3074
18837THY    CA261382   6.669   4.715   4.966  0.2771 -0.0207  0.0425
18837THY    CP161383   6.730   4.854   4.945 -0.2676  0.0753 -0.0094
18837THY    HP161384   6.701   4.925   5.023  0.8421 -0.3965  0.9818
18837THY    CP261385   6.696   4.914   4.804  0.2668 -0.4472 -0.4693
18837THY    HP261386   6.726   4.846   4.724 -0.6084 -1.4804  0.3118
18837THY    HP361387   6.748   5.008   4.783 -1.6459 -1.0194  0.5283
18837THY    HP461388   6.587   4.925   4.798  0.4107  0.5467  2.3252
18837THY    CP361389   6.885   4.854   4.968 -0.2270 -0.3518 -0.4176
18837THY    HP561390   6.919   4.959   4.970 -1.7662  1.1906  0.0922
18837THY    HP661391   6.940   4.811   4.883 -0.6113 -0.7971 -0.0402
18837THY    HP761392   6.917   4.797   5.056 -0.4564 -1.4156 -2.2578
18837THY    CA361393   6.724   4.599   4.899  1.1945 -0.5312 -0.8769
18837THY    HA361394   6.813   4.624   4.842  0.5771 -0.2105  2.5791
18837THY    CA461395   6.659   4.477   4.908 -0.5632 -0.1530  0.6686
18837THY    HA461396   6.697   4.391   4.853 -0.3030  1.1022 -0.0392
18837THY    CA561397   6.537   4.469   4.979 -0.2831  0.2429  0.1688
18837THY    CM161398   6.467   4.335   4.977 -0.3728  0.4529  0.3878
18837THY    HM161399   6.470   4.294   4.876 -2.0826  0.2200  0.7555
18837THY    HM261400   6.360   4.342   4.997 -0.3876  1.4591 -1.7539
18837THY    HM361401   6.523   4.273   5.048  0.3111  0.8824  1.4520
18837THY    CA661402   6.486   4.577   5.046 -0.1382 -0.1182  0.2393
18837THY    HA661403   6.397   4.565   5.108  0.0437  0.5208  1.9546
18838THY      O61404   4.224   9.427   4.829 -0.1781  0.2433 -0.6561
18838THY     HO61405   4.238   9.481   4.750 -1.4735  0.2681 -0.2627
18838THY    CA161406   4.336   9.359   4.864  0.5144  0.3193  0.0741
18838THY    CA261407   4.349   9.303   4.994 -0.9788 -0.0918 -0.2610
18838THY    CP161408   4.245   9.321   5.095  0.3691 -0.0698 -0.1461
18838THY    HP161409   4.178   9.406   5.081  2.5602 -2.0003  1.3893
18838THY    CP261410   4.296   9.354   5.238 -0.4583  0.3871 -0.4077
18838THY    HP261411   4.366   9.283   5.284  1.5444  2.3586  2.5660
18838THY    HP361412   4.207   9.354   5.302 -0.1615  0.8003 -0.6467
18838THY    HP461413   4.344   9.453   5.242  0.1844  0.5669 -0.7209
18838THY    CP361414   4.173   9.180   5.095  0.6767 -0.1319 -0.4930
18838THY    HP561415   4.236   9.095   5.125  0.7863  1.3897  0.0852
18838THY    HP661416   4.146   9.144   4.995 -0.7197  0.3830 -0.9267
18838THY    HP761417   4.091   9.183   5.168  0.9297  0.1304  0.4334
18838THY    CA361418   4.470   9.234   5.021 -0.0248  0.3410  0.5497
18838THY    HA361419   4.492   9.200   5.122 -0.2790 -0.7701 -3.4985
18838THY    CA461420   4.566   9.217   4.923  0.1034  0.5231  0.4711
18838THY    HA461421   4.660   9.164   4.939  0.0990  1.3832  0.6988
18838THY    CA561422   4.546   9.260   4.792 -0.3010  0.8403  0.4189
18838THY    CM161423   4.654   9.246   4.687 -0.2193 -0.5775  0.7846
18838THY    HM161424   4.735   9.314   4.714 -1.0634 -0.0893  1.6173
18838THY    HM261425   4.620   9.258   4.584 -2.0899 -0.2574 -1.1746
18838THY    HM361426   4.682   9.140   4.695 -0.4981  1.4240  0.8127
18838THY    CA661427   4.436   9.346   4.767  0.0339  0.1476 -0.1395
18838THY    HA661428   4.425   9.389   4.668 -0.6269  0.5793  0.7027
18839THY      O61429   5.268   1.603   6.704 -0.7037  0.0743  0.1946
18839THY     HO61430   5.351   1.631   6.662  1.2557  2.6650 -1.2471
18839THY    CA161431   5.183   1.707   6.727  0.4726  0.3826  0.8516
18839THY    CA261432   5.060   1.671   6.779  0.3543  0.4585  0.5239
18839THY    CP161433   5.019   1.533   6.814 -0.3049 -0.1822 -0.2721
18839THY    HP161434   5.098   1.459   6.793  0.3109 -0.1067  0.3451
18839THY    CP261435   4.888   1.488   6.744 -0.0548  0.2017 -0.4024
18839THY    HP261436   4.813   1.565   6.765 -0.2179 -1.2216 -0.1377
18839THY    HP361437   4.855   1.392   6.785  0.6494 -2.8545 -2.1068
18839THY    HP461438   4.902   1.486   6.635 -0.5373  0.0770  1.1570
18839THY    CP361439   5.013   1.521   6.966  0.3157  0.3073  0.0985
18839THY    HP561440   5.012   1.414   6.990 -3.8612 -0.9503 -0.3344
18839THY    HP661441   4.917   1.566   6.995  0.0885  0.6005 -0.5684
18839THY    HP761442   5.093   1.573   7.020 -0.7854  1.2577  0.8669
18839THY    CA361443   4.974   1.785   6.801 -0.2183 -0.5409 -0.4345
18839THY    HA361444   4.871   1.789   6.835  0.4920  1.6099  1.9396
18839THY    CA461445   5.024   1.914   6.782  1.0500 -0.5617 -0.7531
18839THY    HA461446   4.961   2.000   6.807  0.3877 -0.7648 -1.1702
18839THY    CA561447   5.149   1.942   6.745 -0.2747  0.0692  0.7231
18839THY    CM161448   5.199   2.082   6.734 -0.9928 -0.3785 -0.0535
18839THY    HM161449   5.121   2.154   6.760  1.5076  1.4342  2.2308
18839THY    HM261450   5.249   2.103   6.639 -0.9860  0.2585  3.2658
18839THY    HM361451   5.274   2.107   6.811 -2.2964  1.4257 -1.4400
18839THY    CA661452   5.228   1.836   6.712 -0.1877  0.0875  0.5900
18839THY    HA661453   5.330   1.851   6.678  0.3669  1.3036 -0.2617
18840THY      O61454   6.606   1.429   3.574  0.6284 -0.2808 -0.1695
18840THY     HO61455   6.694   1.467   3.589  0.2903  0.3321  0.4019
18840THY    CA161456   6.526   1.540   3.591  0.5504  0.7469  0.1069
18840THY    CA261457   6.425   1.539   3.682 -0.0002  0.0673 -0.7273
18840THY    CP161458   6.392   1.406   3.749  0.1137 -0.3747 -0.5484
18840THY    HP161459   6.447   1.315   3.721  0.5630  2.3756 -1.2190
18840THY    CP261460   6.237   1.373   3.733 -0.1150 -0.3858  0.0391
18840THY    HP261461   6.177   1.464   3.732 -0.8838 -2.2320 -0.4400
18840THY    HP361462   6.200   1.324   3.823 -0.9993 -0.0371  1.3157
18840THY    HP461463   6.212   1.320   3.640 -2.1165  0.3401 -0.3776
18840THY    CP361464   6.411   1.423   3.902 -0.1006  0.1135 -0.1633
18840THY    HP561465   6.339   1.500   3.932 -1.2078  0.0299 -1.1351
18840THY    HP661466   6.511   1.460   3.927 -0.5371 -0.2025  1.2738
18840THY    HP761467   6.392   1.329   3.956  0.7560 -0.3494 -0.6094
18840THY    CA361468   6.338   1.650   3.700  0.4635 -0.0786  0.0116
18840THY    HA361469   6.262   1.651   3.778  1.6005  1.0579  1.3004
18840THY    CA461470   6.371   1.766   3.634 -0.4464  0.2677  0.3278
18840THY    HA461471   6.314   1.856   3.654  0.8056  0.7775  1.0375
18840THY    CA561472   6.475   1.774   3.539  0.0232 -1.0381  0.4247
18840THY    CM161473   6.513   1.907   3.473 -0.3369 -0.5662  0.1459
18840THY    HM161474   6.587   1.960   3.534 -0.7647 -1.1021  1.3900
18840THY    HM261475   6.430   1.975   3.454 -1.3667 -0.3644 -1.0154
18840THY    HM361476   6.576   1.901   3.383 -0.2952 -0.6061  1.0644
18840THY    CA661477   6.555   1.657   3.519 -0.3686 -0.2803 -0.3915
18840THY    HA661478   6.631   1.663   3.441 -0.9137 -0.8401 -0.6323
18841THY      O61479   0.773   7.576   2.698  0.5457 -0.2518 -0.4873
18841THY     HO61480   0.759   7.483   2.674 -0.0796  1.3824 -0.8561
18841THY    CA161481   0.906   7.586   2.710  0.2589  0.0748  0.4169
18841THY    CA261482   0.969   7.709   2.698 -0.4342 -0.8828 -0.1315
18841THY    CP161483   0.893   7.828   2.652  0.8395  0.8036 -0.4100
18841THY    HP161484   0.789   7.803   2.625  0.6159  0.6505  0.6113
18841THY    CP261485   0.967   7.880   2.519  0.0345 -0.2464  0.0356
18841THY    HP261486   0.901   7.939   2.454  0.8140 -1.1893 -0.1020
18841THY    HP361487   0.997   7.789   2.466  1.3014 -0.9686  0.8454
18841THY    HP461488   1.056   7.938   2.544 -0.0442  0.9831 -0.3556
18841THY    CP361489   0.873   7.936   2.756  0.0042 -0.2682  0.0791
18841THY    HP561490   0.790   7.997   2.718  0.1326 -2.2010 -0.8748
18841THY    HP661491   0.952   8.004   2.790  1.6146  0.0955 -1.8749
18841THY    HP761492   0.828   7.886   2.842 -1.3787 -0.7921  0.3869
18841THY    CA361493   1.105   7.711   2.729  0.4170 -0.0035  0.9838
18841THY    HA361494   1.169   7.798   2.719  1.1701  1.5112  0.6344
18841THY    CA461495   1.168   7.600   2.782 -0.2638  0.3481 -0.5740
18841THY    HA461496   1.275   7.610   2.797 -0.1241 -0.9011  0.0791
18841THY    CA561497   1.103   7.480   2.789 -0.0971 -0.4396 -0.4084
18841THY    CM161498   1.169   7.361   2.846  0.5709 -0.1993 -0.8420
18841THY    HM161499   1.181   7.290   2.763 -0.8859 -1.1761  0.0041
18841THY    HM261500   1.098   7.302   2.904 -0.1100 -1.5249 -1.3777
18841THY    HM361501   1.255   7.396   2.904 -0.6677 -0.6978  3.5597
18841THY    CA661502   0.971   7.469   2.750 -0.1611  0.0341 -0.3273
18841THY    HA661503   0.927   7.370   2.755 -0.0595 -2.2245 -0.5446
18842THY      O61504   2.321   8.077   2.288 -0.5927 -0.4318 -0.4051
18842THY     HO61505   2.275   8.081   2.374 -2.1634 -1.2530 -0.2142
18842THY    CA161506   2.451   8.110   2.316  0.4152  0.3548  0.1684
18842THY    CA261507   2.547   8.112   2.216  0.3170  0.1607 -0.1767
18842THY    CP161508   2.512   8.070   2.075  0.0410 -0.3575  0.5785
18842THY    HP161509   2.409   8.038   2.059  0.5151 -0.5986 -0.9046
18842THY    CP261510   2.602   7.947   2.039 -0.5944  0.1740 -0.2402
18842THY    HP261511   2.595   7.870   2.117 -0.7810 -0.8064 -1.2577
18842THY    HP361512   2.707   7.978   2.040 -0.6316  0.0550 -0.1110
18842THY    HP461513   2.576   7.898   1.944 -1.9350 -0.1673  1.0753
18842THY    CP361514   2.545   8.193   1.996  0.3207 -0.0678 -0.4665
18842THY    HP561515   2.533   8.166   1.890 -1.4509  0.2976 -1.2717
18842THY    HP661516   2.645   8.233   2.016  0.2213 -1.4277  0.5651
18842THY    HP761517   2.473   8.271   2.024 -3.1226 -0.0692 -3.3648
18842THY    CA361518   2.679   8.155   2.253  0.4127  0.8929 -0.3688
18842THY    HA361519   2.763   8.175   2.187  0.9891  1.4133 -1.0235
18842THY    CA461520   2.702   8.211   2.381  0.2484 -0.4878  0.1879
18842THY    HA461521   2.800   8.253   2.400 -0.1330 -2.6168  2.2710
18842THY    CA561522   2.605   8.197   2.472 -0.3571 -0.7673  0.1355
18842THY    CM161523   2.632   8.250   2.612  0.1811 -0.1165  0.1548
18842THY    HM161524   2.593   8.349   2.639 -0.3692 -0.7680  0.1182
18842THY    HM261525   2.738   8.261   2.639  0.5979 -0.3203 -2.6670
18842THY    HM361526   2.581   8.178   2.676  0.0375 -0.9609 -0.5033
18842THY    CA661527   2.484   8.145   2.443  0.6281 -0.4947 -0.5656
18842THY    HA661528   2.409   8.135   2.521 -0.6116 -1.4948  0.4362
18843THY      O61529   5.751   4.900   3.198 -0.5224  0.4022 -0.1027
18843THY     HO61530   5.688   4.956   3.149  1.0201 -1.5407  0.0442
18843THY    CA161531   5.701   4.881   3.316 -0.3301 -0.4760  0.8271
18843THY    CA261532   5.775   4.824   3.418 -0.3764  1.1204 -0.0775
18843THY    CP161533   5.919   4.775   3.400  0.4166 -0.2803  0.2225
18843THY    HP161534   5.951   4.802   3.299  1.3257 -0.5757 -1.7651
18843THY    CP261535   5.934   4.623   3.398  0.0681  0.6776  0.5577
18843THY    HP261536   5.871   4.575   3.322 -2.6838  1.1097  3.1868
18843THY    HP361537   5.898   4.579   3.492 -2.0104  0.3397  1.4317
18843THY    HP461538   6.040   4.598   3.383 -0.0421  1.3071 -0.3363
18843THY    CP361539   6.010   4.834   3.510  0.8657  0.3582 -0.2233
18843THY    HP561540   6.111   4.865   3.481 -0.5190 -1.3360  3.1723
18843THY    HP661541   6.020   4.766   3.596 -1.1924 -0.5738 -1.7939
18843THY    HP761542   5.964   4.930   3.535  0.3308 -0.8362 -0.1610
18843THY    CA361543   5.722   4.814   3.545  1.3950 -0.4290  0.2760
18843THY    HA361544   5.781   4.773   3.627 -2.4305  1.8325 -1.1980
18843THY    CA461545   5.589   4.863   3.563  0.9873 -0.4644  0.4797
18843THY    HA461546   5.543   4.864   3.661 -0.7386 -1.2075 -0.4703
18843THY    CA561547   5.517   4.915   3.457  0.2328  0.5463  0.6931
18843THY    CM161548   5.382   4.981   3.479  0.4109  0.7481 -0.4380
18843THY    HM161549   5.364   5.043   3.391 -2.6325  0.9829 -0.8152
18843THY    HM261550   5.383   5.039   3.572 -0.5330  0.0515  0.7353
18843THY    HM361551   5.305   4.903   3.489 -1.7754  0.3599  1.5603
18843THY    CA661552   5.577   4.928   3.331  0.0079  0.0860 -0.1648
18843THY    HA661553   5.523   4.972   3.247 -0.6742 -0.0397 -1.2196
18844THY      O61554   1.293   3.578   7.710  0.7591  0.5196  0.1397
18844THY     HO61555   1.224   3.569   7.777 -1.0860 -1.3914 -0.9019
18844THY    CA161556   1.406   3.513   7.751  0.2405 -0.2988  0.5111
18844THY    CA261557   1.527   3.523   7.686  0.7677  0.0916  0.6121
18844THY    CP161558   1.551   3.627   7.574  0.1678  0.2419  0.2398
18844THY    HP161559   1.469   3.699   7.575  0.8142  0.9892  0.9782
18844THY    CP261560   1.570   3.559   7.441 -0.2814  0.1678  0.0875
18844THY    HP261561   1.650   3.611   7.388  1.5145  2.0857 -0.5837
18844THY    HP361562   1.477   3.578   7.386  0.2703 -0.2041  1.9534
18844THY    HP461563   1.592   3.452   7.451  0.7218 -1.0714  0.1591
18844THY    CP361564   1.679   3.717   7.608  0.4205  0.6637 -0.4266
18844THY    HP561565   1.650   3.771   7.699 -1.1657 -1.1223  1.9721
18844THY    HP661566   1.692   3.789   7.526 -0.0969 -0.5683 -1.6922
18844THY    HP761567   1.773   3.662   7.623  1.2319 -3.2990 -0.4665
18844THY    CA361568   1.635   3.448   7.733 -0.2369 -0.0091  0.2413
18844THY    HA361569   1.726   3.452   7.674  1.2061  2.0388 -0.9943
18844THY    CA461570   1.622   3.366   7.842 -0.1746 -0.4110 -0.6432
18844THY    HA461571   1.711   3.310   7.871 -0.1688  0.6940 -0.0851
18844THY    CA561572   1.496   3.350   7.897 -0.0741 -0.6403 -0.5533
18844THY    CM161573   1.466   3.253   8.003 -0.2292  0.1014 -0.2189
18844THY    HM161574   1.556   3.248   8.065 -0.2407  0.3196  1.6973
18844THY    HM261575   1.455   3.158   7.950 -2.4966  0.8753 -0.4326
18844THY    HM361576   1.380   3.282   8.063  0.2227  0.7713 -0.2568
18844THY    CA661577   1.384   3.424   7.852 -0.1248 -0.9752  0.8145
18844THY    HA661578   1.286   3.400   7.891  1.1019  0.9974 -1.3412
18845THY      O61579   4.904   8.318   4.067  0.4240 -0.0568 -0.5614
18845THY     HO61580   4.994   8.325   4.103  0.2323  0.3676 -0.2223
18845THY    CA161581   4.827   8.427   4.096 -0.1262  0.6503 -0.5005
18845THY    CA261582   4.694   8.428   4.066 -0.7417 -0.7113  0.9929
18845THY    CP161583   4.626   8.311   3.996 -0.5174 -0.2065 -0.2747
18845THY    HP161584   4.695   8.226   4.001  0.7077 -2.1604  0.5412
18845THY    CP261585   4.623   8.335   3.845  0.0665 -0.1723 -0.9752
18845THY    HP261586   4.556   8.420   3.830 -1.0807 -0.0704 -1.8371
18845THY    HP361587   4.579   8.245   3.800 -1.2121  1.7128 -1.3652
18845THY    HP461588   4.723   8.356   3.806 -0.1025 -0.1122 -0.0091
18845THY    CP361589   4.488   8.272   4.054 -0.5123 -0.2893  0.0812
18845THY    HP561590   4.427   8.362   4.069  1.0091 -1.4448  1.3731
18845THY    HP661591   4.509   8.217   4.146  0.0336 -1.5319 -1.8703
18845THY    HP761592   4.441   8.198   3.989  0.6858  0.3661 -1.3018
18845THY    CA361593   4.625   8.550   4.082  0.1858  0.4273 -0.0153
18845THY    HA361594   4.524   8.557   4.043  0.6090 -0.4271  1.8620
18845THY    CA461595   4.682   8.660   4.156 -0.0525  0.0612 -0.2507
18845THY    HA461596   4.625   8.749   4.178  1.2766 -2.2030  1.2754
18845THY    CA561597   4.818   8.655   4.177 -0.0245 -0.7265  0.0772
18845THY    CM161598   4.889   8.772   4.235 -0.5484 -0.3105 -0.0542
18845THY    HM161599   4.896   8.851   4.159  0.4318 -0.7082 -0.4988
18845THY    HM261600   4.987   8.732   4.263 -0.1848 -2.9448 -1.2622
18845THY    HM361601   4.856   8.819   4.328  2.9269 -0.3468  2.8973
18845THY    CA661602   4.890   8.535   4.150  0.0288 -0.5038 -0.1349
18845THY    HA661603   4.995   8.531   4.177 -0.0775  0.5600  2.6835
18846THY      O61604   7.521   2.075   7.680  0.6802 -0.1825 -0.1085
18846THY     HO61605   7.600   2.072   7.736  0.0633  0.7002 -0.4207
18846THY    CA161606   7.510   1.954   7.645  0.8130  0.6455  0.0708
18846THY    CA261607   7.411   1.917   7.554  0.6640 -0.1959  0.7516
18846THY    CP161608   7.308   2.023   7.509  0.6275  0.8152  0.1639
18846THY    HP161609   7.326   2.127   7.539  1.8592 -2.8058  1.1594
18846THY    CP261610   7.166   1.972   7.549 -0.0027  0.1161  0.1878
18846THY    HP261611   7.084   2.000   7.483  0.7998 -1.4628 -1.0291
18846THY    HP361612   7.140   2.033   7.636  0.5056 -0.6801  1.5713
18846THY    HP461613   7.152   1.867   7.580 -1.5589  0.2751  0.4290
18846THY    CP361614   7.312   2.035   7.356  0.1066  0.7117 -0.3037
18846THY    HP561615   7.273   2.127   7.312  0.0646 -3.1388 -1.9526
18846THY    HP661616   7.281   1.946   7.300  1.0191 -0.6819  0.2102
18846THY    HP761617   7.416   2.048   7.324 -0.2943 -0.2495  0.6957
18846THY    CA361618   7.403   1.780   7.520  0.3990  0.5858 -0.5988
18846THY    HA361619   7.343   1.741   7.438  1.2171  0.6872 -2.1471
18846THY    CA461620   7.494   1.688   7.572 -0.0105  0.1304 -0.2088
18846THY    HA461621   7.482   1.584   7.540 -1.4760 -0.3379  0.0740
18846THY    CA561622   7.585   1.728   7.670 -0.4200  0.1027  0.5153
18846THY    CM161623   7.695   1.638   7.718  0.0455  0.0822  0.0989
18846THY    HM161624   7.702   1.636   7.828  0.8941  0.0581 -3.2223
18846THY    HM261625   7.794   1.659   7.674 -0.5507 -0.6982  1.4391
18846THY    HM361626   7.665   1.539   7.685 -0.4744  1.7073 -0.3144
18846THY    CA661627   7.601   1.863   7.699  0.1052 -0.4910 -0.3552
18846THY    HA661628   7.678   1.904   7.764 -0.3770  0.1455 -0.4459
18847THY      O61629   3.093   2.989   3.284 -0.0818 -0.6073 -0.3119
18847THY     HO61630   3.068   3.023   3.372  2.4496  0.8275 -1.7467
18847THY    CA161631   3.042   2.859   3.282 -0.5092 -0.5302 -0.0004
18847THY    CA261632   2.926   2.825   3.207 -0.2617  0.2626  0.4463
18847THY    CP161633   2.844   2.939   3.141  0.5034 -0.2514 -0.9328
18847THY    HP161634   2.900   3.033   3.150  1.1291 -2.1335 -1.0895
18847THY    CP261635   2.718   2.963   3.211 -0.2827 -0.5038 -0.0006
18847THY    HP261636   2.671   3.054   3.170  0.3626 -0.2911  0.4370
18847THY    HP361637   2.749   2.989   3.312  1.0582 -0.7779 -0.4768
18847THY    HP461638   2.656   2.874   3.203 -1.3740  0.6491  0.6251
18847THY    CP361639   2.822   2.912   2.997 -0.2990  1.0202  0.1098
18847THY    HP561640   2.919   2.901   2.948  0.1998  1.8363  0.7932
18847THY    HP661641   2.781   2.995   2.938  0.5462  0.1744 -0.0557
18847THY    HP761642   2.755   2.825   2.994 -0.7558  0.0097  0.4775
18847THY    CA361643   2.886   2.690   3.192  0.3426  0.0418 -0.0070
18847THY    HA361644   2.802   2.659   3.130  0.5353 -0.2511  0.0548
18847THY    CA461645   2.959   2.588   3.256  0.1213 -0.2700 -0.0650
18847THY    HA461646   2.931   2.484   3.244 -1.7411  1.0881  0.2270
18847THY    CA561647   3.078   2.620   3.328  0.5688  0.0513  0.1867
18847THY    CM161648   3.168   2.515   3.373  0.8361  0.4638  0.5519
18847THY    HM161649   3.108   2.425   3.392 -1.5390  2.0177  2.3256
18847THY    HM261650   3.203   2.548   3.472 -0.7089  1.4441 -0.5734
18847THY    HM361651   3.254   2.498   3.308  1.3057  0.4659  2.7163
18847THY    CA661652   3.118   2.758   3.334  0.1280 -0.4216  0.8103
18847THY    HA661653   3.212   2.780   3.385  1.1739 -1.4517 -0.9620
18848THY      O61654   1.469   5.545   3.665 -0.0998  0.3012 -0.3398
18848THY     HO61655   1.457   5.637   3.693  0.5791  0.5219 -0.3078
18848THY    CA161656   1.413   5.549   3.544  0.1183  0.0362  0.3055
18848THY    CA261657   1.409   5.440   3.453 -0.4368 -0.2491  0.8994
18848THY    CP161658   1.440   5.295   3.496 -0.5372  0.6628  0.1175
18848THY    HP161659   1.498   5.292   3.589 -1.5062  1.2788 -2.1203
18848THY    CP261660   1.529   5.217   3.403  0.2025  0.3989 -0.4475
18848THY    HP261661   1.553   5.121   3.449  0.5145  1.7525  0.2524
18848THY    HP361662   1.624   5.269   3.383 -0.7303 -2.2025  0.4554
18848THY    HP461663   1.490   5.189   3.305 -0.1050  0.0317  1.1609
18848THY    CP361664   1.310   5.217   3.525  0.3559 -0.0309  0.1966
18848THY    HP561665   1.338   5.113   3.544 -1.2295 -0.9217 -0.4306
18848THY    HP661666   1.230   5.221   3.450 -0.1182  0.4786  0.3744
18848THY    HP761667   1.271   5.260   3.618 -0.0015 -0.0940  0.0096
18848THY    CA361668   1.363   5.464   3.323 -0.9885  0.6500  0.2163
18848THY    HA361669   1.352   5.394   3.241 -0.8444  1.1623 -0.4194
18848THY    CA461670   1.306   5.590   3.291 -0.1537 -0.1781  0.3463
18848THY    HA461671   1.258   5.604   3.194  1.2720 -0.8304  1.0101
18848THY    CA561672   1.306   5.696   3.383  0.0212  0.6177 -0.3598
18848THY    CM161673   1.246   5.819   3.337  0.3866 -0.7571 -0.4096
18848THY    HM161674   1.142   5.813   3.304  0.2920 -0.4445 -0.5268
18848THY    HM261675   1.316   5.866   3.267  0.8022 -0.6870 -0.9078
18848THY    HM361676   1.243   5.881   3.427  0.6840 -0.2735 -1.0740
18848THY    CA661677   1.356   5.672   3.513  0.5323 -0.0950 -0.3965
18848THY    HA661678   1.351   5.752   3.586 -5.0141 -1.5460  0.9685
18849THY      O61679   5.938   4.717   4.979  0.0580  0.0295  0.3849
18849THY     HO61680   5.893   4.632   4.992  0.6942 -0.4995 -0.0446
18849THY    CA161681   6.017   4.710   5.084 -0.1115 -0.5619  0.1104
18849THY    CA261682   6.086   4.820   5.130  0.2241  0.2095 -0.1854
18849THY    CP161683   6.062   4.951   5.055 -0.2701 -0.0875 -0.2507
18849THY    HP161684   6.001   4.951   4.964 -2.4868  1.3096 -0.8419
18849THY    CP261685   6.200   5.019   5.008 -0.0978  0.4734  0.4091
18849THY    HP261686   6.267   5.042   5.091  0.4986 -0.4760  2.3199
18849THY    HP361687   6.177   5.112   4.955  1.7814 -0.7627  0.2205
18849THY    HP461688   6.248   4.949   4.937 -0.0470  0.7612  0.1518
18849THY    CP361689   6.005   5.056   5.151  0.7654 -0.0805 -0.1237
18849THY    HP561690   5.909   5.024   5.194  0.2056 -1.3706 -0.2256
18849THY    HP661691   5.991   5.150   5.097  2.1119  2.6649  1.8015
18849THY    HP761692   6.061   5.079   5.243  1.3746  0.3500 -2.9738
18849THY    CA361693   6.180   4.804   5.238  0.4740 -0.1766 -0.4146
18849THY    HA361694   6.237   4.886   5.281 -1.8668  0.9540  0.6956
18849THY    CA461695   6.200   4.670   5.288 -0.2501 -0.0070 -0.0910
18849THY    HA461696   6.268   4.656   5.372  0.1694  0.7263  4.7162
18849THY    CA561697   6.128   4.558   5.244  0.0377  1.2424  0.4458
18849THY    CM161698   6.144   4.418   5.300 -0.1795  0.6721  0.1073
18849THY    HM161699   6.215   4.357   5.244  1.9639  2.0406  1.2157
18849THY    HM261700   6.048   4.366   5.301 -0.6085  0.1070  0.8669
18849THY    HM361701   6.179   4.423   5.404 -1.0342  0.9196  1.3145
18849THY    CA661702   6.039   4.578   5.138  0.3040  0.1127 -0.1821
18849THY    HA661703   5.986   4.490   5.102  0.3836  0.9053 -0.5670
18850THY      O61704   2.442   4.960   2.024 -0.2394  0.1231 -0.0166
18850THY     HO61705   2.450   5.040   1.969 -2.6993 -0.3716 -0.0312
18850THY    CA161706   2.491   4.846   1.965 -0.0216 -0.4609 -0.2142
18850THY    CA261707   2.512   4.733   2.049 -0.3429  0.9208  0.4685
18850THY    CP161708   2.474   4.732   2.198 -0.5316 -0.0004 -0.0963
18850THY    HP161709   2.403   4.815   2.209 -0.2212 -0.8183  0.2879
18850THY    CP261710   2.590   4.754   2.292 -0.6223 -0.2397  0.4363
18850THY    HP261711   2.634   4.854   2.279 -1.0518  2.5602  1.0578
18850THY    HP361712   2.664   4.673   2.294  0.2461 -1.6053  1.1534
18850THY    HP461713   2.548   4.752   2.393  1.1759  0.5754  1.2299
18850THY    CP361714   2.388   4.607   2.236 -0.1185  1.1585 -0.7052
18850THY    HP561715   2.290   4.621   2.189  0.4968  0.1367  0.3798
18850THY    HP661716   2.362   4.599   2.342  0.0114  1.1301 -1.5574
18850THY    HP761717   2.438   4.513   2.209 -0.9576 -0.9166 -0.5998
18850THY    CA361718   2.578   4.622   1.979  0.8001  0.5292  0.5749
18850THY    HA361719   2.606   4.531   2.032  1.4318 -0.3785  0.2312
18850THY    CA461720   2.605   4.622   1.846 -0.6859  0.3293 -0.7824
18850THY    HA461721   2.653   4.539   1.795  0.9343 -1.5204  1.1596
18850THY    CA561722   2.579   4.737   1.766  0.7134 -0.9779  0.4193
18850THY    CM161723   2.612   4.735   1.621  0.5590 -0.1504 -0.1405
18850THY    HM161724   2.514   4.735   1.571  0.4429  0.0680  0.2707
18850THY    HM261725   2.655   4.637   1.600  1.6985  0.3621  0.2417
18850THY    HM361726   2.669   4.826   1.600 -0.6590 -1.6502  0.3272
18850THY    CA661727   2.524   4.852   1.830 -0.0123 -0.1100  0.5554
18850THY    HA661728   2.508   4.941   1.770  2.0816 -1.2061  0.2684
18851THY      O61729   1.419   1.779   3.299  0.0380 -0.3863 -0.5749
18851THY     HO61730   1.425   1.684   3.320 -0.3128  0.6357 -0.3891
18851THY    CA161731   1.370   1.837   3.416 -0.2230 -0.1021 -0.0015
18851THY    CA261732   1.299   1.955   3.406 -0.3467  0.1347  0.1793
18851THY    CP161733   1.272   2.022   3.270 -0.0746  0.9095  0.4098
18851THY    HP161734   1.356   2.006   3.200  0.1107  0.2112  3.7790
18851THY    CP261735   1.266   2.177   3.273  0.5297  0.4092  0.9016
18851THY    HP261736   1.181   2.213   3.333 -0.6799 -0.5968 -0.1520
18851THY    HP361737   1.244   2.211   3.171 -0.6576  0.3332 -0.0301
18851THY    HP461738   1.363   2.220   3.298  0.6032  1.0923  0.3476
18851THY    CP361739   1.138   1.969   3.208 -0.2368  0.0372 -0.1645
18851THY    HP561740   1.115   2.017   3.113  2.1473  0.6497  2.4326
18851THY    HP661741   1.056   1.991   3.278 -1.4327 -1.3936  0.0450
18851THY    HP761742   1.139   1.860   3.195  0.3085 -1.2654 -0.0161
18851THY    CA361743   1.261   2.015   3.530 -0.3198 -1.0676 -0.6745
18851THY    HA361744   1.205   2.108   3.531  1.1055  0.6134  0.2365
18851THY    CA461745   1.279   1.934   3.650 -0.0224 -0.5549  0.0327
18851THY    HA461746   1.227   1.964   3.740  0.0645 -0.6283  0.4110
18851THY    CA561747   1.350   1.818   3.651 -0.5061  0.6251  0.0382
18851THY    CM161748   1.364   1.734   3.771 -0.2071 -0.4398 -0.0772
18851THY    HM161749   1.470   1.715   3.791 -0.1050 -0.0051  0.8915
18851THY    HM261750   1.300   1.644   3.765 -0.8657  0.7512  0.2906
18851THY    HM361751   1.328   1.784   3.862 -0.4223 -0.4754 -0.1637
18851THY    CA661752   1.406   1.776   3.529  0.4318 -0.6048  0.8747
18851THY    HA661753   1.453   1.679   3.525 -1.9689  2.2232 -0.5350
18852THY      O61754   7.119   2.870   2.492  0.2994  0.5826 -0.0755
18852THY     HO61755   7.159   2.818   2.421  1.6024  0.8834  0.4803
18852THY    CA161756   7.161   2.997   2.469 -0.3071  0.0774  1.3874
18852THY    CA261757   7.125   3.098   2.559  0.1547 -0.5227 -0.1189
18852THY    CP161758   7.079   3.063   2.701  0.3743 -0.4256  0.2345
18852THY    HP161759   7.018   2.971   2.707 -0.2653  2.3741  0.7423
18852THY    CP261760   6.988   3.162   2.772  0.2099  0.3369 -0.0140
18852THY    HP261761   7.044   3.250   2.805 -0.0081  2.1856 -0.5277
18852THY    HP361762   6.948   3.123   2.866 -0.6778 -0.0935 -0.1837
18852THY    HP461763   6.896   3.192   2.720 -1.1823  3.1453  0.9534
18852THY    CP361764   7.202   3.032   2.788 -0.3699 -0.0277 -0.2852
18852THY    HP561765   7.285   3.102   2.771 -1.1941  1.9132  1.2528
18852THY    HP661766   7.236   2.931   2.759 -0.2218  0.7187 -0.4537
18852THY    HP761767   7.184   3.020   2.895  0.2639  0.2195  0.8086
18852THY    CA361768   7.164   3.229   2.531 -0.1055 -0.2486 -0.6815
18852THY    HA361769   7.151   3.310   2.601  2.7992 -0.2368 -0.1113
18852THY    CA461770   7.228   3.254   2.410 -0.3994 -0.3322 -0.2812
18852THY    HA461771   7.253   3.353   2.371  0.2446  1.4496  0.2986
18852THY    CA561772   7.247   3.161   2.314 -0.2876  0.8198 -0.6921
18852THY    CM161773   7.327   3.191   2.193  0.0613 -0.3363 -0.2559
18852THY    HM161774   7.398   3.119   2.150  1.4033  1.1405  0.1251
18852THY    HM261775   7.381   3.286   2.187  2.5117  1.2080 -1.4576
18852THY    HM361776   7.249   3.201   2.116 -0.5228  0.3070  0.2587
18852THY    CA661777   7.222   3.028   2.343  0.6057 -0.0671  0.2239
18852THY    HA661778   7.249   2.947   2.276  0.8308 -0.0780  0.3079
18853THY      O61779   5.529   2.840   2.626  0.1193 -0.7563 -0.0133
18853THY     HO61780   5.569   2.751   2.625  0.7672 -1.4615  0.2717
18853THY    CA161781   5.540   2.880   2.496 -0.3558 -0.5757 -0.0700
18853THY    CA261782   5.466   2.986   2.448 -0.0627  0.4056 -0.3343
18853THY    CP161783   5.380   3.072   2.531  0.5845  0.2225  0.2851
18853THY    HP161784   5.362   3.034   2.632 -1.4975 -0.6110 -1.1023
18853THY    CP261785   5.234   3.091   2.474 -0.0958  0.4292  0.0482
18853THY    HP261786   5.176   3.144   2.550 -0.7341  1.0111 -1.4414
18853THY    HP361787   5.188   2.993   2.459 -0.8260  1.8059  0.1627
18853THY    HP461788   5.228   3.151   2.382 -1.3595  0.5701  0.1680
18853THY    CP361789   5.441   3.211   2.544  0.7707  0.4656 -0.3349
18853THY    HP561790   5.382   3.269   2.615  1.2822  2.2412 -1.8593
18853THY    HP661791   5.433   3.274   2.455  0.0019  0.3938 -0.5228
18853THY    HP761792   5.545   3.207   2.581  1.1538 -0.6306 -1.1914
18853THY    CA361793   5.488   3.027   2.316 -0.0933  0.4303 -0.0790
18853THY    HA361794   5.439   3.117   2.281 -0.2147 -1.5106 -0.8650
18853THY    CA461795   5.580   2.961   2.232  0.2736 -0.1822 -0.6854
18853THY    HA461796   5.594   2.994   2.129 -1.4018 -1.0493 -2.4660
18853THY    CA561797   5.654   2.855   2.285  0.8434 -0.5724  0.1342
18853THY    CM161798   5.753   2.785   2.197  0.2223  0.1316 -0.1219
18853THY    HM161799   5.840   2.849   2.181  0.0866 -0.4466 -0.0750
18853THY    HM261800   5.701   2.761   2.103 -1.3986  1.6164 -2.9330
18853THY    HM361801   5.781   2.690   2.245  0.1387 -1.0522 -0.7669
18853THY    CA661802   5.626   2.811   2.415  0.0032  0.0762  0.1241
18853THY    HA661803   5.689   2.730   2.451 -0.7707  0.1846 -0.4408
18854THY      O61804   8.714   3.201   1.729 -0.0889  0.8425 -0.1277
18854THY     HO61805   8.680   3.271   1.671  1.9635  0.5643  0.7315
18854THY    CA161806   8.845   3.227   1.730 -0.8600  0.2448 -0.4924
18854THY    CA261807   8.946   3.132   1.776  0.2207  0.4343 -0.0071
18854THY    CP161808   8.925   2.979   1.760  0.6705 -0.6215 -0.8986
18854THY    HP161809   8.825   2.959   1.721  1.0996 -1.5353 -1.3907
18854THY    CP261810   8.941   2.902   1.882 -0.3547 -0.4722  0.4242
18854THY    HP261811   8.868   2.940   1.954  0.1553  0.8052 -0.9442
18854THY    HP361812   9.047   2.918   1.905  0.1981 -0.8300 -2.1823
18854THY    HP461813   8.912   2.797   1.871 -2.7798 -0.6444  1.0566
18854THY    CP361814   9.010   2.913   1.648  1.3600 -0.5813  0.1290
18854THY    HP561815   8.954   2.827   1.611  1.7294 -0.0486 -0.3460
18854THY    HP661816   9.107   2.876   1.683  0.6090  0.8739 -0.5214
18854THY    HP761817   9.019   2.989   1.569 -0.6477 -1.1496 -0.1797
18854THY    CA361818   9.078   3.182   1.804 -0.1503  0.6979  0.3872
18854THY    HA361819   9.160   3.112   1.818  0.4264  0.6752  1.0469
18854THY    CA461820   9.103   3.321   1.795 -0.0611 -1.3140 -0.7453
18854THY    HA461821   9.201   3.363   1.816 -0.6644  0.0461  0.0326
18854THY    CA561822   9.006   3.413   1.765  0.0829 -0.0458 -0.5066
18854THY    CM161823   9.037   3.559   1.776  0.2265  0.5365  1.1822
18854THY    HM161824   9.044   3.591   1.881 -0.3692  1.0902 -0.4424
18854THY    HM261825   8.964   3.623   1.724 -0.0348  0.2692  0.6660
18854THY    HM361826   9.135   3.586   1.733  1.2972  1.5610 -0.8661
18854THY    CA661827   8.877   3.364   1.733 -0.4430 -0.1236 -0.1468
18854THY    HA661828   8.791   3.428   1.717 -1.9058  1.0296 -1.7454
18855THY      O61829   8.359   8.494   4.728 -0.1548  0.4771 -0.1934
18855THY     HO61830   8.314   8.518   4.811 -0.8595 -0.6057  2.6584
18855THY    CA161831   8.458   8.398   4.758 -0.0472  0.5946  0.3316
18855THY    CA261832   8.518   8.325   4.658  0.0540 -0.0211  0.4285
18855THY    CP161833   8.507   8.349   4.507  0.1573  0.5758  0.6698
18855THY    HP161834   8.451   8.441   4.486  1.3433  2.7150  1.9692
18855THY    CP261835   8.427   8.228   4.450  0.0257 -0.7075 -0.0376
18855THY    HP261836   8.329   8.219   4.498 -0.2203 -1.0753  0.6351
18855THY    HP361837   8.481   8.133   4.458 -0.2815 -0.2956 -0.1803
18855THY    HP461838   8.410   8.259   4.346  0.7987 -0.1191  2.6215
18855THY    CP361839   8.635   8.394   4.436 -0.0073 -0.2885 -0.0576
18855THY    HP561840   8.615   8.435   4.336  0.1555 -1.2579 -2.2162
18855THY    HP661841   8.710   8.315   4.421 -0.5098  1.7311 -0.9851
18855THY    HP761842   8.695   8.457   4.503  2.7020 -1.8435 -0.7939
18855THY    CA361843   8.604   8.223   4.701  0.0815 -0.4876  0.2834
18855THY    HA361844   8.666   8.167   4.632  0.9785  0.2344  0.3803
18855THY    CA461845   8.623   8.193   4.841 -0.0877 -0.3946  0.5144
18855THY    HA461846   8.693   8.124   4.886  0.9250  1.3945  2.5961
18855THY    CA561847   8.571   8.280   4.936 -0.4758 -0.4282 -0.0397
18855THY    CM161848   8.603   8.271   5.081 -0.2099 -0.0693  0.1562
18855THY    HM161849   8.538   8.205   5.140  0.4752  2.2038  1.3952
18855THY    HM261850   8.589   8.371   5.124 -0.5083 -1.9239  0.9626
18855THY    HM361851   8.706   8.238   5.097 -0.6252 -1.2753 -1.8993
18855THY    CA661852   8.488   8.386   4.892  0.0604  0.6487  0.6344
18855THY    HA661853   8.440   8.445   4.970 -0.8059  0.2471  0.4790
18856THY      O61854   3.052   6.653   2.566 -0.1484 -0.1449  0.0060
18856THY     HO61855   3.113   6.726   2.545  0.1042  0.3962 -0.0482
18856THY    CA161856   3.028   6.689   2.699 -0.7489 -0.1520 -0.8287
18856THY    CA261857   3.021   6.595   2.803  0.6823  0.1893  0.5856
18856THY    CP161858   3.031   6.443   2.781 -0.5194  0.3677  0.2829
18856THY    HP161859   3.047   6.411   2.677  0.1410  0.5279  0.0771
18856THY    CP261860   2.908   6.371   2.828 -0.3968  0.2209 -0.7129
18856THY    HP261861   2.906   6.267   2.794 -1.7427 -1.2213 -0.2595
18856THY    HP361862   2.826   6.418   2.772 -0.5046  2.1958  1.6710
18856THY    HP461863   2.885   6.370   2.935  1.7511  0.7374 -1.0557
18856THY    CP361864   3.164   6.387   2.844 -0.1194  0.1333  0.2447
18856THY    HP561865   3.150   6.279   2.835  1.3598  2.6496 -0.2446
18856THY    HP661866   3.171   6.412   2.951 -3.0376  0.3811  0.2850
18856THY    HP761867   3.251   6.422   2.788  0.2998  0.4973 -0.2037
18856THY    CA361868   3.006   6.644   2.936  0.8605 -0.1609  0.5610
18856THY    HA361869   3.008   6.573   3.018  0.6656 -0.6803 -0.0598
18856THY    CA461870   2.989   6.778   2.959 -0.6210  0.3678  0.1138
18856THY    HA461871   2.970   6.815   3.059 -1.5802  0.3925 -0.4195
18856THY    CA561872   2.999   6.867   2.858  0.6394  0.8155 -0.1671
18856THY    CM161873   2.968   7.015   2.883 -0.0564 -0.5412 -0.1142
18856THY    HM161874   2.967   7.068   2.787 -3.0091  0.1849  1.3758
18856THY    HM261875   3.047   7.065   2.940  0.4430 -0.4609 -0.9888
18856THY    HM361876   2.868   7.019   2.928  0.1057 -0.1668 -0.2298
18856THY    CA661877   3.031   6.827   2.727 -0.0020 -0.2530  0.2696
18856THY    HA661878   3.030   6.898   2.645  0.3405  0.5174  1.1875
18857THY      O61879   8.586   2.697   3.362 -0.5603 -0.4944 -0.1170
18857THY     HO61880   8.579   2.613   3.410 -0.4175  0.9423  0.6598
18857THY    CA161881   8.666   2.673   3.259  0.4310  0.0656  0.9311
18857THY    CA261882   8.631   2.695   3.125  0.4740  0.0102 -0.0135
18857THY    CP161883   8.494   2.753   3.094 -0.8380 -0.1692  0.2265
18857THY    HP161884   8.437   2.780   3.184 -0.3955 -0.0874  0.9137
18857THY    CP261885   8.414   2.644   3.019  0.6932 -0.4046 -0.4287
18857THY    HP261886   8.391   2.566   3.092 -0.2260 -1.1062 -0.8334
18857THY    HP361887   8.479   2.601   2.942  2.0490  1.1291 -1.2041
18857THY    HP461888   8.327   2.695   2.976  0.8264 -0.1963 -0.0213
18857THY    CP361889   8.496   2.881   3.009 -0.0252 -0.0825 -0.0477
18857THY    HP561890   8.405   2.941   3.020  0.7509 -3.8877  2.1748
18857THY    HP661891   8.524   2.861   2.904  0.0203  0.1029 -1.0017
18857THY    HP761892   8.572   2.944   3.056 -0.2252  0.1754  0.0030
18857THY    CA361893   8.718   2.668   3.016  0.0811  0.9099  0.3577
18857THY    HA361894   8.705   2.694   2.911 -0.3279  0.8610 -0.0452
18857THY    CA461895   8.843   2.620   3.051  0.2460 -0.1895 -0.5598
18857THY    HA461896   8.919   2.597   2.977  2.4477  0.7795  2.8514
18857THY    CA561897   8.885   2.597   3.178  0.0898  0.0438 -0.8652
18857THY    CM161898   9.017   2.530   3.195  1.0572 -0.3377 -0.3399
18857THY    HM161899   9.012   2.424   3.224  2.1363  2.7905  0.3585
18857THY    HM261900   9.081   2.576   3.271  1.6335  0.1593 -1.8989
18857THY    HM361901   9.069   2.517   3.099  1.3640 -0.0723 -1.1221
18857THY    CA661902   8.795   2.620   3.286 -0.6378  0.4956  0.5972
18857THY    HA661903   8.827   2.600   3.388 -1.4086  0.7810  0.7920
18858THY      O61904   1.570   1.531   3.334 -0.0186  0.7541  0.4225
18858THY     HO61905   1.658   1.571   3.341 -1.6208 -1.1288  4.9482
18858THY    CA161906   1.591   1.403   3.290  0.1805  0.4843  0.1357
18858THY    CA261907   1.487   1.306   3.289 -0.2264  0.2731 -0.1605
18858THY    CP161908   1.344   1.346   3.305 -0.6859 -0.6803  0.1824
18858THY    HP161909   1.340   1.453   3.328 -1.0484 -1.0442  0.2480
18858THY    CP261910   1.282   1.273   3.424 -0.0889 -0.3078 -0.8106
18858THY    HP261911   1.265   1.167   3.402  0.6551 -2.3667 -0.5379
18858THY    HP361912   1.180   1.308   3.445  1.0264  0.8849  2.0603
18858THY    HP461913   1.347   1.271   3.512 -0.2371 -0.0755  1.6057
18858THY    CP361914   1.277   1.327   3.177  0.3501  0.3269 -0.0606
18858THY    HP561915   1.270   1.223   3.145  0.4712 -0.4808  0.1761
18858THY    HP661916   1.308   1.397   3.099  0.3269  1.5098  1.3100
18858THY    HP761917   1.169   1.345   3.187 -0.0464 -1.4504 -1.2465
18858THY    CA361918   1.528   1.171   3.269  0.0130  0.2556  0.6867
18858THY    HA361919   1.462   1.085   3.275  1.2638  1.3917 -0.2362
18858THY    CA461920   1.661   1.139   3.249 -0.4917  1.2955 -0.2294
18858THY    HA461921   1.692   1.037   3.230  0.3453 -0.7616  0.3624
18858THY    CA561922   1.749   1.241   3.219 -0.2506 -0.0877 -0.5406
18858THY    CM161923   1.893   1.202   3.189 -0.1453  0.1198 -0.0931
18858THY    HM161924   1.947   1.276   3.128 -0.0124  1.6149  1.0963
18858THY    HM261925   1.914   1.106   3.142  0.6744  0.8927 -0.3048
18858THY    HM361926   1.941   1.193   3.287  0.1999 -0.1706 -1.6753
18858THY    CA661927   1.719   1.372   3.256 -1.0778 -0.1699  0.4828
18858THY    HA661928   1.783   1.459   3.249 -0.3635  1.6722  0.1688
18859THY      O61929   3.139   6.466   5.356 -0.5763  0.1692  0.0620
18859THY     HO61930   3.186   6.519   5.422 -0.2318 -1.3237  1.6961
18859THY    CA161931   3.207   6.483   5.240  0.4938  0.3646 -0.6948
18859THY    CA261932   3.161   6.418   5.119  0.2994 -0.1883 -0.9208
18859THY    CP161933   3.025   6.347   5.116  0.7076 -0.3198  0.4614
18859THY    HP161934   2.963   6.400   5.189  0.6501 -0.6303  0.8315
18859THY    CP261935   3.036   6.192   5.155 -0.8755 -0.1351 -0.0652
18859THY    HP261936   3.108   6.131   5.099  0.4477  2.7006 -1.3142
18859THY    HP361937   2.938   6.145   5.143  0.8944 -1.0833 -3.8729
18859THY    HP461938   3.055   6.174   5.262 -0.7233 -0.2467 -0.5778
18859THY    CP361939   2.941   6.369   4.991  0.3465  0.3987  0.1341
18859THY    HP561940   2.835   6.341   5.002  0.1352 -2.0111 -0.2642
18859THY    HP661941   2.976   6.329   4.895  1.7582  1.4367 -1.2618
18859THY    HP761942   2.945   6.476   4.969  0.3678 -1.6700 -0.2581
18859THY    CA361943   3.253   6.421   5.011 -0.0322 -0.4511  0.6672
18859THY    HA361944   3.234   6.366   4.920 -0.8946  0.0247  0.1460
18859THY    CA461945   3.366   6.510   5.012 -0.2320 -0.2030 -0.2226
18859THY    HA461946   3.425   6.521   4.922 -0.7474 -0.9708 -2.8197
18859THY    CA561947   3.406   6.577   5.130 -0.5316  0.2624  0.1375
18859THY    CM161948   3.544   6.646   5.132 -0.1959  0.4021  0.5051
18859THY    HM161949   3.556   6.744   5.180 -0.4934  0.7573  0.3723
18859THY    HM261950   3.593   6.649   5.034 -0.4121  0.2704 -0.0954
18859THY    HM361951   3.615   6.586   5.189  1.6919 -0.7333  1.5504
18859THY    CA661952   3.322   6.568   5.239  0.0358 -0.5169  0.0846
18859THY    HA661953   3.352   6.616   5.332 -0.8033 -0.3017  0.2105
18860THY      O61954   7.308   7.237   4.726 -0.0020  0.4273  0.3079
18860THY     HO61955   7.260   7.214   4.644  2.3214 -1.3037  1.1955
18860THY    CA161956   7.228   7.204   4.829  0.4195 -0.2388  0.3427
18860THY    CA261957   7.263   7.213   4.962  0.4475  0.3026 -0.4945
18860THY    CP161958   7.406   7.263   4.993 -0.1574  0.3797  1.0514
18860THY    HP161959   7.476   7.262   4.909  1.0683  1.2312 -3.1867
18860THY    CP261960   7.491   7.163   5.073  0.2192 -0.0143  0.1246
18860THY    HP261961   7.583   7.189   5.127  0.6622 -0.0872 -1.2211
18860THY    HP361962   7.506   7.073   5.012 -0.4171 -0.3536  0.2454
18860THY    HP461963   7.431   7.136   5.160  1.6928  1.4759  1.4135
18860THY    CP361964   7.411   7.399   5.051  0.3008  0.2468 -0.4186
18860THY    HP561965   7.344   7.470   5.002  3.4886 -1.7159  1.4992
18860THY    HP661966   7.513   7.437   5.033 -0.6126 -0.7014  1.7355
18860THY    HP761967   7.388   7.391   5.158  1.4533  0.6689  1.3369
18860THY    CA361968   7.163   7.186   5.058  0.0908  0.0519 -0.4879
18860THY    HA361969   7.186   7.186   5.164  2.7684 -0.3771 -3.1437
18860THY    CA461970   7.041   7.143   5.016 -0.5183 -0.5853  0.4313
18860THY    HA461971   6.964   7.112   5.086 -0.7647 -1.3987 -0.8714
18860THY    CA561972   7.009   7.135   4.882  0.1181  0.4039  0.1239
18860THY    CM161973   6.870   7.091   4.839  0.1695 -0.0261 -0.3623
18860THY    HM161974   6.867   7.011   4.764 -0.1843  0.1077 -0.4716
18860THY    HM261975   6.822   7.179   4.795 -0.9827  0.8286 -0.5482
18860THY    HM361976   6.796   7.064   4.915 -1.4376 -1.3913  0.0242
18860THY    CA661977   7.106   7.158   4.786  0.4294 -0.1897  0.6897
18860THY    HA661978   7.077   7.148   4.682 -1.2852  0.1322  1.8925
18861THY      O61979   6.940   0.774   6.196 -0.3139  0.0700 -0.2398
18861THY     HO61980   7.029   0.754   6.230 -0.4491  0.6748  0.1684
18861THY    CA161981   6.858   0.708   6.276 -0.2670 -0.0937  0.2481
18861THY    CA261982   6.723   0.729   6.262  0.3015 -0.1202  0.0844
18861THY    CP161983   6.670   0.842   6.169  0.0827  0.6644  0.0329
18861THY    HP161984   6.744   0.910   6.124 -3.5071 -2.2912  2.4212
18861THY    CP261985   6.590   0.936   6.260 -0.0452  0.1554 -0.3706
18861THY    HP261986   6.511   0.889   6.321 -0.9299  0.5073  1.4840
18861THY    HP361987   6.549   1.024   6.210  3.2993 -1.2963  0.4980
18861THY    HP461988   6.663   0.979   6.328  1.1131 -2.2704  1.7373
18861THY    CP361989   6.574   0.790   6.066  0.6214  0.2259  0.0798
18861THY    HP561990   6.505   0.870   6.035  1.6654 -1.5616  0.3274
18861THY    HP661991   6.511   0.720   6.122  0.2486  0.6272  0.7263
18861THY    HP761992   6.619   0.747   5.976  1.3591  0.0479  1.1740
18861THY    CA361993   6.632   0.644   6.332 -1.0415  0.4772 -0.7782
18861THY    HA361994   6.525   0.656   6.323 -0.9506  0.0799 -0.2030
18861THY    CA461995   6.680   0.555   6.426  0.4798 -0.2124 -0.1864
18861THY    HA461996   6.603   0.500   6.479 -2.8697 -4.2492  0.1076
18861THY    CA561997   6.815   0.531   6.434  0.1746  1.0889 -0.5481
18861THY    CM161998   6.874   0.426   6.528 -0.6161  0.5509  0.5267
18861THY    HM161999   6.973   0.457   6.564 -0.8045  0.7076  0.9541
18861THY    HM262000   6.897   0.341   6.462  0.0897  0.4872  0.7582
18861THY    HM362001   6.809   0.401   6.612 -1.7490 -0.9635 -1.8775
18861THY    CA662002   6.905   0.609   6.361 -0.8104 -0.3423 -0.8134
18861THY    HA662003   7.011   0.588   6.356 -0.7478 -0.5648 -0.4513
18862THY      O62004   8.387   5.250   2.423 -0.1254 -0.0566  0.1703
18862THY     HO62005   8.395   5.255   2.519  1.9972 -0.2244  0.9461
18862THY    CA162006   8.281   5.323   2.389 -0.0316 -0.1342  0.5566
18862THY    CA262007   8.207   5.288   2.271  0.3949 -0.4422 -0.2066
18862THY    CP162008   8.261   5.183   2.167  0.6212  0.2556 -0.5353
18862THY    HP162009   8.330   5.113   2.217  0.5393  1.6342  0.3307
18862THY    CP262010   8.335   5.259   2.052 -0.1331 -0.4284 -0.0078
18862THY    HP262011   8.267   5.296   1.974 -0.0370 -1.6870 -2.3101
18862THY    HP362012   8.404   5.189   2.002 -1.6109 -0.1379 -1.7379
18862THY    HP462013   8.390   5.344   2.094  0.1595 -1.5639  0.3907
18862THY    CP362014   8.139   5.102   2.122 -0.2420  0.6991  0.3791
18862THY    HP562015   8.073   5.075   2.205 -0.2605  0.6187  0.1797
18862THY    HP662016   8.168   5.015   2.063  0.2054 -0.4266  1.2613
18862THY    HP762017   8.070   5.161   2.060  1.4352 -0.4181  1.2524
18862THY    CA362018   8.085   5.354   2.247  0.0183  0.2481 -0.6120
18862THY    HA362019   8.026   5.337   2.158 -0.6997  0.9139 -1.7666
18862THY    CA462020   8.033   5.447   2.345  0.2351  0.3423 -1.0893
18862THY    HA462021   7.934   5.491   2.337  0.2450  1.4007 -0.8321
18862THY    CA562022   8.100   5.466   2.464 -0.2969 -0.4071 -0.0774
18862THY    CM162023   8.056   5.572   2.559 -0.3354 -0.4022  0.0082
18862THY    HM162024   7.967   5.547   2.618 -0.4995 -0.1694  1.0906
18862THY    HM262025   8.039   5.660   2.495 -0.2232 -0.8566 -0.2971
18862THY    HM362026   8.123   5.613   2.635 -1.9257  0.6944  0.6821
18862THY    CA662027   8.226   5.403   2.486  0.4641  0.1001  0.3886
18862THY    HA662028   8.277   5.414   2.582 -1.6957  1.2939  0.6226
18863THY      O62029   6.356   3.098   3.501  0.0571 -0.1843  0.2212
18863THY     HO62030   6.429   3.130   3.446  1.0107  1.5038  1.0057
18863THY    CA162031   6.251   3.096   3.421 -0.0842  0.1204 -0.7969
18863THY    CA262032   6.121   3.127   3.468 -0.3416 -0.0939 -0.2356
18863THY    CP162033   6.099   3.165   3.610  0.1457 -0.3654 -0.1444
18863THY    HP162034   6.189   3.147   3.670  0.1808 -0.6341 -0.9114
18863THY    CP262035   5.984   3.091   3.672  0.0775 -0.2042 -0.0839
18863THY    HP262036   5.961   3.118   3.776  0.1040  0.1648 -1.4122
18863THY    HP362037   5.987   2.982   3.673 -2.8859 -1.6185 -0.3077
18863THY    HP462038   5.892   3.113   3.616 -0.3036  1.4337  3.1069
18863THY    CP362039   6.073   3.311   3.633  0.6200 -0.0292 -0.0768
18863THY    HP562040   6.059   3.329   3.740  1.4685  0.1606 -0.4917
18863THY    HP662041   5.991   3.345   3.569  1.0387  0.8407  2.9341
18863THY    HP762042   6.156   3.374   3.597  0.3885 -3.0857 -1.3564
18863THY    CA362043   6.014   3.150   3.381  0.3413  0.0670  0.3368
18863THY    HA362044   5.916   3.185   3.410  0.0018  0.4635 -0.9008
18863THY    CA462045   6.039   3.129   3.244  0.1266 -0.5511  0.1577
18863THY    HA462046   5.955   3.155   3.181  1.0257 -1.8187  0.0438
18863THY    CA562047   6.165   3.080   3.196  1.0104  0.1570  0.0838
18863THY    CM162048   6.191   3.052   3.049 -0.1155 -1.0356  0.3660
18863THY    HM162049   6.099   3.002   3.015 -1.0800  2.4801 -0.5864
18863THY    HM262050   6.282   2.992   3.032  1.2043  0.1497  1.9490
18863THY    HM362051   6.209   3.146   2.997 -2.3123 -1.8743  0.3913
18863THY    CA662052   6.270   3.060   3.282  0.7512 -0.4077 -0.4950
18863THY    HA662053   6.363   3.018   3.244  1.5062  2.4385 -1.5910
18864THY      O62054   1.572   1.088   4.246 -0.4504  0.9831  0.3471
18864THY     HO62055   1.581   1.003   4.294 -1.4056 -0.9184 -0.9005
18864THY    CA162056   1.483   1.164   4.317 -0.2945 -0.3208 -1.5495
18864THY    CA262057   1.454   1.299   4.278 -0.1949 -0.1773 -0.4317
18864THY    CP162058   1.534   1.366   4.162 -0.2586  0.1254  0.0308
18864THY    HP162059   1.562   1.297   4.081  1.0070  0.4778  0.1010
18864THY    CP262060   1.672   1.415   4.205 -0.1102  0.2633  0.0510
18864THY    HP262061   1.736   1.446   4.123  2.0104  0.2140 -3.8308
18864THY    HP362062   1.728   1.331   4.247  1.1700  1.4858  1.4477
18864THY    HP462063   1.664   1.484   4.290  1.7692 -0.5051  1.2755
18864THY    CP362064   1.482   1.481   4.078  0.3226  0.5077  0.6855
18864THY    HP562065   1.473   1.564   4.149 -0.2567  0.2408  0.8550
18864THY    HP662066   1.383   1.466   4.033  0.6068  0.8186 -2.9728
18864THY    HP762067   1.559   1.499   4.001  0.3311 -0.0937 -1.6075
18864THY    CA362068   1.355   1.367   4.345 -0.8572 -0.4423  0.2993
18864THY    HA362069   1.336   1.474   4.333  1.4230  1.3784  1.0247
18864THY    CA462070   1.284   1.299   4.452  0.0365 -0.7050 -0.1355
18864THY    HA462071   1.209   1.352   4.510 -0.4405 -0.2673 -1.2818
18864THY    CA562072   1.310   1.163   4.490 -0.5834 -0.5230  0.2238
18864THY    CM162073   1.230   1.095   4.601 -0.0239 -0.3860  0.6590
18864THY    HM162074   1.304   1.085   4.681  1.0912 -1.4998 -0.2638
18864THY    HM262075   1.183   1.003   4.565 -0.2468  0.7877  0.3001
18864THY    HM362076   1.149   1.166   4.624 -2.3787  1.0270 -2.2505
18864THY    CA662077   1.412   1.104   4.421  0.6308 -0.1071  0.8943
18864THY    HA662078   1.432   1.003   4.455  0.0010 -1.4417  0.3011
18865THY      O62079   2.140   1.424   2.729  0.2643  0.3808 -0.2190
18865THY     HO62080   2.094   1.398   2.648  1.0045 -0.3867  0.7763
18865THY    CA162081   2.272   1.434   2.694 -0.7305 -0.6222 -0.4097
18865THY    CA262082   2.354   1.543   2.730  0.3034  0.3104  0.3336
18865THY    CP162083   2.300   1.662   2.812 -0.2960 -0.9321 -0.3164
18865THY    HP162084   2.198   1.643   2.849  0.5902  1.3787 -0.9442
18865THY    CP262085   2.304   1.798   2.742 -0.1915 -0.0736 -0.6109
18865THY    HP262086   2.288   1.888   2.802 -0.7442 -0.1411 -0.6624
18865THY    HP362087   2.237   1.815   2.656 -1.7608  1.5561  2.2713
18865THY    HP462088   2.394   1.802   2.680 -1.3724 -1.9046 -1.1531
18865THY    CP362089   2.376   1.679   2.957 -0.0882  0.1227 -0.1975
18865THY    HP562090   2.360   1.775   3.007 -0.7586  0.1646 -0.3291
18865THY    HP662091   2.483   1.680   2.932  0.8401  3.4960 -1.5175
18865THY    HP762092   2.366   1.586   3.014  0.7930 -0.5296 -0.7073
18865THY    CA362093   2.488   1.541   2.686  0.2834 -0.1994  0.1367
18865THY    HA362094   2.547   1.627   2.714 -1.2226  1.3475  0.7310
18865THY    CA462095   2.538   1.434   2.613 -0.4976 -0.5015 -0.4849
18865THY    HA462096   2.643   1.440   2.589  0.2018  2.0102 -1.2503
18865THY    CA562097   2.455   1.325   2.583  0.4489 -0.3161  0.5028
18865THY    CM162098   2.511   1.196   2.513  0.4410 -0.1579  0.7611
18865THY    HM162099   2.604   1.220   2.461 -0.3541 -2.6817 -1.2706
18865THY    HM262100   2.438   1.147   2.449  0.6998  0.8667 -1.0435
18865THY    HM362101   2.536   1.120   2.588 -2.0830 -1.3515 -1.4064
18865THY    CA662102   2.323   1.328   2.621  0.1525  0.0766  0.6291
18865THY    HA662103   2.259   1.243   2.601  3.3012  0.6696 -2.0418
18866THY      O62104   8.955   7.407   2.506  0.1438  0.4555  0.3399
18866THY     HO62105   9.048   7.428   2.489 -0.5533 -1.8737  1.9910
18866THY    CA162106   8.914   7.310   2.424 -0.0360  0.6011  0.1646
18866THY    CA262107   8.778   7.289   2.413  0.4727 -0.1166  0.2348
18866THY    CP162108   8.683   7.352   2.514  0.4545 -0.2306  0.6714
18866THY    HP162109   8.739   7.394   2.598  2.8650 -1.6522  0.5624
18866THY    CP262110   8.578   7.260   2.576  0.4942  0.1985 -0.1575
18866THY    HP262111   8.627   7.182   2.637  0.5421 -0.6417 -0.7968
18866THY    HP362112   8.501   7.212   2.514 -0.1744  0.7005  0.2433
18866THY    HP462113   8.523   7.328   2.642 -2.1815 -3.9739  2.1517
18866THY    CP362114   8.604   7.461   2.450  0.1343  0.0245  0.1857
18866THY    HP562115   8.545   7.515   2.526 -0.5697  0.0019 -0.5303
18866THY    HP662116   8.526   7.424   2.382 -0.6262  1.1465 -0.3327
18866THY    HP762117   8.663   7.524   2.383  0.4664 -0.4570 -0.6182
18866THY    CA362118   8.732   7.190   2.327 -0.4207 -0.1950 -0.5286
18866THY    HA362119   8.627   7.165   2.335 -1.1899 -1.0519  2.0428
18866THY    CA462120   8.822   7.130   2.233 -0.5192 -0.1751 -0.0631
18866THY    HA462121   8.797   7.051   2.163 -0.0339 -1.2488  0.7057
18866THY    CA562122   8.959   7.163   2.235 -0.5107  0.4458 -0.2664
18866THY    CM162123   9.055   7.112   2.134  0.2852  0.2696 -0.0682
18866THY    HM162124   9.159   7.122   2.167  0.2925  1.1501 -2.4026
18866THY    HM262125   9.034   7.168   2.043 -1.3103  1.8287  2.0249
18866THY    HM362126   9.044   7.013   2.087 -0.3337 -2.3205  1.1650
18866THY    CA662127   9.003   7.260   2.326 -0.5015 -0.7212  0.0719
18866THY    HA662128   9.106   7.294   2.326 -0.5173  0.6384  0.1589
18867THY      O62129   0.820   8.693   3.743  0.3930 -0.1071 -0.0827
18867THY     HO62130   0.730   8.720   3.770  0.7253 -1.2747  2.5771
18867THY    CA162131   0.827   8.559   3.724  0.4665  0.8586  0.0640
18867THY    CA262132   0.949   8.494   3.724  0.0828  0.3541 -0.5675
18867THY    CP162133   1.077   8.582   3.747 -0.0751 -0.2020 -0.5145
18867THY    HP162134   1.053   8.677   3.795 -2.2054  0.7709 -1.4764
18867THY    CP262135   1.129   8.621   3.604  0.6084  0.7141 -0.0122
18867THY    HP262136   1.114   8.536   3.537  3.6198  1.3359 -1.1733
18867THY    HP362137   1.236   8.644   3.598  0.6015  1.3543  0.2132
18867THY    HP462138   1.075   8.701   3.551  0.7441  0.6533  0.0402
18867THY    CP362139   1.179   8.515   3.838 -0.0612  0.3618 -0.4659
18867THY    HP562140   1.204   8.415   3.800  0.6719  0.9887 -0.5337
18867THY    HP662141   1.142   8.497   3.940 -0.5761  0.6327  1.8614
18867THY    HP762142   1.271   8.573   3.852 -0.8824  2.5995  0.3761
18867THY    CA362143   0.955   8.357   3.696 -0.3233  0.4432  0.7491
18867THY    HA362144   1.045   8.297   3.685 -3.4633  0.0600 -4.5954
18867THY    CA462145   0.839   8.289   3.670 -0.2371  0.0232  0.0992
18867THY    HA462146   0.840   8.186   3.635 -2.8372  0.5633 -0.1834
18867THY    CA562147   0.716   8.355   3.683 -0.0382  0.3177  0.5834
18867THY    CM162148   0.589   8.273   3.654 -0.2100  0.1891 -0.1823
18867THY    HM162149   0.608   8.231   3.554  0.9787 -0.7642  2.4294
18867THY    HM262150   0.491   8.319   3.673 -0.0521  0.4517  0.0439
18867THY    HM362151   0.588   8.196   3.732 -0.8194  0.8504  0.4902
18867THY    CA662152   0.707   8.491   3.701 -0.1282  0.4270  0.0766
18867THY    HA662153   0.617   8.549   3.680  0.6889 -0.7997  0.9468
18868THY      O62154   0.683   5.477   7.142  0.0151  0.3729  0.0264
18868THY     HO62155   0.755   5.412   7.153 -0.9188 -1.4161 -1.3929
18868THY    CA162156   0.630   5.438   7.022 -0.2370 -0.0660 -0.0465
18868THY    CA262157   0.508   5.477   6.982  0.9718  0.3998  0.4669
18868THY    CP162158   0.418   5.554   7.076 -0.1075  0.6251  0.5436
18868THY    HP162159   0.462   5.555   7.176 -0.3416  0.8595 -2.3755
18868THY    CP262160   0.284   5.490   7.092  0.1685  0.1279 -0.0803
18868THY    HP262161   0.309   5.387   7.119 -1.8491 -0.7510 -0.8384
18868THY    HP362162   0.220   5.496   7.003 -3.0758  2.3994  2.8041
18868THY    HP462163   0.232   5.534   7.178 -0.1564  0.3474 -0.8858
18868THY    CP362164   0.408   5.698   7.029  0.4455 -0.8627  0.0355
18868THY    HP562165   0.342   5.710   6.942  0.3408 -0.9481 -1.0803
18868THY    HP662166   0.507   5.745   7.026  0.6642 -3.0198 -0.4386
18868THY    HP762167   0.343   5.748   7.102 -0.1040  0.4474 -2.4613
18868THY    CA362168   0.462   5.444   6.852 -0.5679 -0.2106  0.3701
18868THY    HA362169   0.367   5.485   6.819 -0.7304  1.9094  1.8734
18868THY    CA462170   0.543   5.357   6.769 -0.0621 -0.6019  0.9633
18868THY    HA462171   0.510   5.326   6.670 -0.1918  0.5756 -3.3713
18868THY    CA562172   0.667   5.318   6.815 -0.0160 -0.4830  0.8441
18868THY    CM162173   0.758   5.240   6.735  0.0263  0.3319  0.2923
18868THY    HM162174   0.781   5.154   6.798  1.0213 -0.6032 -0.1548
18868THY    HM262175   0.844   5.303   6.709 -1.1770 -1.3077  1.3447
18868THY    HM362176   0.703   5.197   6.651 -2.7339  1.1906  1.8889
18868THY    CA662177   0.708   5.359   6.940 -0.7205 -0.5673  0.5682
18868THY    HA662178   0.801   5.322   6.982 -1.8209  1.3246 -0.1976
18869THY      O62179   1.095   5.723   5.523  0.3836 -0.5110  0.2730
18869THY     HO62180   1.181   5.766   5.510  0.5057 -2.1523 -0.3836
18869THY    CA162181   1.018   5.778   5.626 -0.1190  0.3376  0.0366
18869THY    CA262182   0.891   5.733   5.651 -0.0663  0.1912  0.0812
18869THY    CP162183   0.818   5.629   5.566 -0.1674  0.0338 -0.3397
18869THY    HP162184   0.880   5.620   5.476  1.6793  1.2766 -0.8257
18869THY    CP262185   0.679   5.682   5.524 -0.3186  0.2015 -0.3127
18869THY    HP262186   0.692   5.786   5.491  4.1032  1.9756 -0.0743
18869THY    HP362187   0.600   5.663   5.598 -0.2023  0.6107  0.7337
18869THY    HP462188   0.641   5.625   5.439 -2.3274 -1.1064  2.6712
18869THY    CP362189   0.806   5.488   5.634  0.8216 -0.0129 -0.4176
18869THY    HP562190   0.704   5.457   5.660  0.8658 -0.3521 -0.8460
18869THY    HP662191   0.863   5.493   5.727  0.5520  0.2693 -2.0555
18869THY    HP762192   0.849   5.409   5.572 -0.6953  1.3772 -2.4199
18869THY    CA362193   0.812   5.786   5.753 -0.4195 -0.8485  0.2120
18869THY    HA362194   0.713   5.745   5.771  0.4229 -1.8807 -2.4666
18869THY    CA462195   0.870   5.880   5.839 -0.0686 -0.1446 -0.7740
18869THY    HA462196   0.815   5.917   5.925  2.1660  1.2733 -0.5951
18869THY    CA562197   1.000   5.928   5.820 -0.0626  0.1260  0.5828
18869THY    CM162198   1.053   6.042   5.895 -0.0372 -0.1658  0.6651
18869THY    HM162199   1.108   6.001   5.981 -0.1064 -0.2627  0.3675
18869THY    HM262200   0.965   6.097   5.931 -1.4913 -2.7132  0.1561
18869THY    HM362201   1.121   6.105   5.837 -1.3640 -0.4985  1.8344
18869THY    CA662202   1.070   5.881   5.705 -0.2761 -0.6348  0.9048
18869THY    HA662203   1.167   5.919   5.675  0.7576  0.5388 -0.6813
18870THY      O62204   0.852   7.768   5.090  0.0829 -0.1413 -0.3859
18870THY     HO62205   0.846   7.730   5.001 -1.8549  0.9466 -2.8975
18870THY    CA162206   0.763   7.697   5.168  0.2129  0.1369  0.1804
18870THY    CA262207   0.712   7.751   5.289  0.5069 -0.6032 -0.4945
18870THY    CP162208   0.747   7.890   5.329 -0.2218 -0.2393 -0.0135
18870THY    HP162209   0.820   7.938   5.263  0.0839 -0.2544 -0.4875
18870THY    CP262210   0.814   7.886   5.466  0.5125 -0.3554  0.4022
18870THY    HP262211   0.907   7.830   5.449 -0.0321 -0.9754 -0.3460
18870THY    HP362212   0.756   7.825   5.536  0.7733 -2.1122 -2.0479
18870THY    HP462213   0.833   7.987   5.503  1.0775  0.7605 -0.1033
18870THY    CP362214   0.625   7.979   5.354 -0.2716  0.6780  0.1330
18870THY    HP562215   0.578   8.003   5.258  1.1890 -0.1655 -0.2407
18870THY    HP662216   0.652   8.079   5.389 -0.8951  0.6360  0.3197
18870THY    HP762217   0.561   7.927   5.426 -0.7937  0.0029 -0.1878
18870THY    CA362218   0.618   7.678   5.374 -0.3311  0.8395 -0.5303
18870THY    HA362219   0.584   7.704   5.474 -0.5906  0.3889  0.9885
18870THY    CA462220   0.582   7.559   5.318  0.2516  0.6328  0.8833
18870THY    HA462221   0.514   7.502   5.380  0.2849 -0.7862 -0.7840
18870THY    CA562222   0.649   7.496   5.209 -0.1438 -0.0343  0.3539
18870THY    CM162223   0.620   7.345   5.180  0.3495 -0.1056 -0.3700
18870THY    HM162224   0.531   7.319   5.240 -0.2201  0.3726  2.4147
18870THY    HM262225   0.694   7.275   5.220  1.6015 -2.9521 -0.7835
18870THY    HM362226   0.604   7.331   5.073 -2.7481  0.0189  1.2882
18870THY    CA662227   0.733   7.568   5.128 -0.5297  0.2533  0.1015
18870THY    HA662228   0.766   7.523   5.035 -0.4368 -0.0915  0.8665
18871THY      O62229   8.966   9.402   2.020 -0.3870 -0.3143 -0.0484
18871THY     HO62230   8.884   9.439   1.982  1.1920 -1.8354  2.1585
18871THY    CA162231   8.954   9.273   2.061 -0.8635 -0.3046 -0.4207
18871THY    CA262232   9.065   9.207   2.111 -0.0741 -0.2402 -0.9695
18871THY    CP162233   9.190   9.287   2.156  0.6328 -0.5479 -0.7376
18871THY    HP162234   9.147   9.387   2.171 -0.5882 -0.1530 -1.3086
18871THY    CP262235   9.296   9.293   2.055 -0.5003  0.4437  0.0083
18871THY    HP262236   9.322   9.189   2.031  2.8927 -0.3704  0.9133
18871THY    HP362237   9.388   9.352   2.067 -1.1141 -1.2430  1.3966
18871THY    HP462238   9.252   9.337   1.965 -0.6895  0.1361 -0.7965
18871THY    CP362239   9.246   9.235   2.290  0.0143 -0.2350  0.0727
18871THY    HP562240   9.167   9.222   2.365  1.6821  1.4746 -0.7347
18871THY    HP662241   9.301   9.320   2.333  0.2736 -0.1840 -0.1210
18871THY    HP762242   9.301   9.140   2.284 -1.4297 -0.8715 -0.7488
18871THY    CA362243   9.063   9.068   2.125 -0.2123  0.5098 -0.5850
18871THY    HA362244   9.149   9.013   2.160  0.7750 -0.0125  0.5722
18871THY    CA462245   8.953   8.997   2.093 -0.0935  0.2530 -0.4675
18871THY    HA462246   8.951   8.889   2.101 -1.7376 -0.1006 -0.4916
18871THY    CA562247   8.837   9.060   2.050  0.2233  0.9549  0.2088
18871THY    CM162248   8.712   8.989   2.035 -0.3115 -0.5722 -0.3341
18871THY    HM162249   8.621   9.049   2.042 -1.0152  0.4391 -1.4584
18871THY    HM262250   8.710   8.899   2.099  2.2284 -0.2361 -0.2148
18871THY    HM362251   8.702   8.951   1.932 -0.0240 -0.5015 -0.6035
18871THY    CA662252   8.838   9.197   2.031 -0.0115 -0.0586  0.2813
18871THY    HA662253   8.744   9.240   1.995  0.0767 -0.1205  0.4221
18872THY      O62254   0.992   3.590   7.372 -0.1798 -0.1355 -0.4865
18872THY     HO62255   1.078   3.632   7.389 -1.2035  0.1775  1.6102
18872THY    CA162256   1.023   3.460   7.353 -0.4224  0.4486 -0.3668
18872THY    CA262257   0.938   3.372   7.290 -0.1191  0.6060 -0.4171
18872THY    CP162258   0.791   3.406   7.254 -0.7032  0.0513  0.6590
18872THY    HP162259   0.751   3.497   7.299 -2.5863  0.7218 -0.4660
18872THY    CP262260   0.703   3.302   7.319  0.2371  0.1787 -0.1600
18872THY    HP262261   0.600   3.336   7.305 -0.2073  2.6761 -0.2869
18872THY    HP362262   0.718   3.298   7.428 -1.4359  0.4263 -0.5600
18872THY    HP462263   0.710   3.201   7.279  0.9475  1.6373 -0.7280
18872THY    CP362264   0.762   3.394   7.098  0.0786  0.4601  0.3832
18872THY    HP562265   0.810   3.482   7.053  1.7136  0.7374 -0.3234
18872THY    HP662266   0.653   3.396   7.087  0.1014  0.2150  0.2846
18872THY    HP762267   0.800   3.306   7.045 -0.4378  0.6539  0.0381
18872THY    CA362268   0.979   3.238   7.274 -0.1664 -0.8919  0.2525
18872THY    HA362269   0.926   3.158   7.223  1.6295  0.7477 -2.1097
18872THY    CA462270   1.109   3.203   7.307  0.7053  0.7282  0.3713
18872THY    HA462271   1.144   3.102   7.287 -0.7100  1.6726 -0.3323
18872THY    CA562272   1.189   3.284   7.387 -0.3733  0.1373 -0.2303
18872THY    CM162273   1.333   3.251   7.410 -0.4366 -0.2369 -0.0748
18872THY    HM162274   1.350   3.277   7.515  0.0214 -0.3478  0.0883
18872THY    HM262275   1.397   3.310   7.344  1.6695 -0.5499 -2.5521
18872THY    HM362276   1.356   3.144   7.397  0.3085 -0.0473  0.0543
18872THY    CA662277   1.146   3.417   7.408  0.5415  0.9832 -0.0395
18872THY    HA662278   1.204   3.491   7.463 -1.7820  1.0742  1.8795
18873THY      O62279   1.096   1.945   4.871  0.0682  0.3139  0.2264
18873THY     HO62280   1.175   1.892   4.890  0.7347  0.0254  1.0857
18873THY    CA162281   1.079   1.940   4.740  0.2351 -0.1872 -0.0029
18873THY    CA262282   1.003   2.034   4.669 -0.0747  0.0054  0.4913
18873THY    CP162283   0.936   2.153   4.743  0.2091  0.3665 -0.2593
18873THY    HP162284   1.008   2.181   4.821 -1.1593  1.3899  0.5544
18873THY    CP262285   0.809   2.105   4.817  0.1430  0.4949  0.2930
18873THY    HP262286   0.818   2.003   4.857  1.6471  1.1429  0.6569
18873THY    HP362287   0.725   2.109   4.747  0.6572 -0.1378  0.2368
18873THY    HP462288   0.787   2.159   4.910  0.8746  0.1888  1.1429
18873THY    CP362289   0.908   2.269   4.659 -0.4576 -0.2363 -0.2177
18873THY    HP562290   0.995   2.281   4.595  0.4127  0.7663 -1.0585
18873THY    HP662291   0.906   2.361   4.719  0.7857  0.6164 -0.7272
18873THY    HP762292   0.820   2.267   4.593 -1.1659  0.5796  1.3336
18873THY    CA362293   0.973   2.000   4.533  0.3208  0.0119  0.2298
18873THY    HA362294   0.918   2.067   4.468  2.4935  0.0254  2.1677
18873THY    CA462295   1.035   1.886   4.471  0.4162  0.1453 -0.8701
18873THY    HA462296   1.012   1.869   4.366  0.2991  0.4354 -2.6801
18873THY    CA562297   1.107   1.797   4.546 -0.1789 -0.3838 -0.1849
18873THY    CM162298   1.165   1.665   4.488 -0.0606 -0.0161  0.1211
18873THY    HM162299   1.119   1.570   4.519  0.7908  0.4012 -0.1741
18873THY    HM262300   1.269   1.653   4.523 -0.6036  1.4403 -0.6373
18873THY    HM362301   1.154   1.678   4.380 -0.4642  0.2644  2.6127
18873THY    CA662302   1.114   1.819   4.685 -0.3705 -0.2450  0.5816
18873THY    HA662303   1.172   1.744   4.738 -1.3684 -1.1587 -0.9032
18874THY      O62304   0.692   7.640   2.437  0.2983 -0.1905 -0.2174
18874THY     HO62305   0.684   7.544   2.454  0.2944 -0.2838 -0.2343
18874THY    CA162306   0.602   7.662   2.337  0.6070  0.1982  0.0970
18874THY    CA262307   0.528   7.779   2.330  0.6783 -0.0452  0.4766
18874THY    CP162308   0.564   7.899   2.414 -1.0643 -0.4135  0.1471
18874THY    HP162309   0.645   7.876   2.485 -1.1343  0.0691  1.3187
18874THY    CP262310   0.441   7.953   2.494 -0.4615 -0.1239  0.2888
18874THY    HP262311   0.355   7.975   2.430 -0.2580 -1.1625 -1.6993
18874THY    HP362312   0.468   8.047   2.545  2.1749 -0.7919 -0.0158
18874THY    HP462313   0.422   7.887   2.580 -1.8756 -0.6865 -0.0723
18874THY    CP362314   0.624   8.003   2.318 -0.1757 -0.2318  0.3959
18874THY    HP562315   0.551   8.029   2.241  0.0546 -0.5308  0.1729
18874THY    HP662316   0.708   7.956   2.265  1.1218  1.8616  0.2096
18874THY    HP762317   0.667   8.094   2.360 -0.0162 -2.6522  1.5174
18874THY    CA362318   0.418   7.791   2.235  0.8070  0.1007  0.2150
18874THY    HA362319   0.366   7.886   2.222  2.3113  0.2911  1.1069
18874THY    CA462320   0.391   7.677   2.149  0.7468 -0.8308  0.6377
18874THY    HA462321   0.308   7.689   2.079 -1.1267  1.2569  0.4335
18874THY    CA562322   0.479   7.568   2.150  0.9165 -0.3575  0.5536
18874THY    CM162323   0.458   7.445   2.064 -0.4178  0.1378  0.3765
18874THY    HM162324   0.350   7.436   2.049 -0.5810  1.0275  0.7099
18874THY    HM262325   0.501   7.355   2.111  1.5311  0.5130  1.4665
18874THY    HM362326   0.512   7.452   1.969  0.2378  0.5098  0.4126
18874THY    CA662327   0.579   7.562   2.248 -0.4707  0.1611 -0.2237
18874THY    HA662328   0.657   7.487   2.244  0.8922 -0.1799  1.1669
18875THY      O62329   3.732   7.069   7.452  0.8460  0.3968  0.4677
18875THY     HO62330   3.701   7.057   7.544  0.8550  0.4232  0.6320
18875THY    CA162331   3.673   7.185   7.414  0.0802  0.6082 -0.8293
18875THY    CA262332   3.701   7.235   7.285 -0.0624 -0.1804 -0.2127
18875THY    CP162333   3.801   7.148   7.200 -0.3968  0.1848  0.5432
18875THY    HP162334   3.802   7.040   7.220  0.2764 -1.3275  0.2351
18875THY    CP262335   3.951   7.196   7.227  0.4505 -0.3283  0.1051
18875THY    HP262336   3.957   7.304   7.210 -2.4092  1.5446  0.6797
18875THY    HP362337   4.021   7.156   7.153  2.0233  0.8901  0.4862
18875THY    HP462338   3.989   7.175   7.327  1.1219 -1.0450 -2.3575
18875THY    CP362339   3.773   7.161   7.047 -0.0786  0.5226 -0.6137
18875THY    HP562340   3.671   7.127   7.023 -0.2995 -1.3345  1.1909
18875THY    HP662341   3.851   7.118   6.983 -1.3892 -0.8109 -1.0930
18875THY    HP762342   3.760   7.268   7.025  0.4087 -1.5736 -0.9496
18875THY    CA362343   3.637   7.359   7.244 -0.2963 -0.7773 -0.1705
18875THY    HA362344   3.653   7.394   7.142 -0.1355 -0.5034  0.5706
18875THY    CA462345   3.556   7.423   7.338  0.4624  0.3284 -0.1637
18875THY    HA462346   3.502   7.510   7.302 -0.3049  1.6047 -0.0907
18875THY    CA562347   3.536   7.369   7.469 -0.2050  0.4367  0.4487
18875THY    CM162348   3.440   7.450   7.559 -0.6569 -0.2004  0.3761
18875THY    HM162349   3.486   7.522   7.628 -0.2084 -1.1052  0.9775
18875THY    HM262350   3.382   7.375   7.614 -1.7357 -3.6253 -1.5514
18875THY    HM362351   3.367   7.503   7.496  0.3035 -4.0086 -2.4362
18875THY    CA662352   3.602   7.249   7.512 -0.8594  0.8535  0.5028
18875THY    HA662353   3.585   7.195   7.604  0.1668 -0.1007 -1.5275
18876THY      O62354   1.003   7.390   6.095 -0.2444  0.2450 -0.5682
18876THY     HO62355   1.005   7.300   6.060 -0.9699 -2.1633  0.2743
18876THY    CA162356   0.874   7.417   6.132  0.2691 -0.3417  0.3390
18876THY    CA262357   0.843   7.502   6.241 -0.3049 -0.1806 -0.0470
18876THY    CP162358   0.955   7.576   6.321 -0.2365 -0.1331  0.1997
18876THY    HP162359   1.025   7.620   6.249 -2.8459 -1.8236  1.8163
18876THY    CP262360   1.034   7.480   6.411 -0.2601  0.4135  0.0034
18876THY    HP262361   0.953   7.451   6.480 -0.2614  0.7496  0.7666
18876THY    HP362362   1.110   7.535   6.468  0.5010 -0.3732 -0.2286
18876THY    HP462363   1.070   7.392   6.357  0.5119  0.4033  0.3147
18876THY    CP362364   0.900   7.690   6.416 -0.9575 -0.4426  0.0361
18876THY    HP562365   0.984   7.753   6.447 -2.5327  1.2786  1.3737
18876THY    HP662366   0.855   7.648   6.506 -1.8471 -0.5343  0.7793
18876THY    HP762367   0.823   7.755   6.372 -2.6715 -1.0653 -2.2975
18876THY    CA362368   0.708   7.509   6.281  0.3492  0.0495 -0.0917
18876THY    HA362369   0.689   7.567   6.371  3.7042  1.1382 -0.4874
18876THY    CA462370   0.603   7.454   6.207  0.9098  0.6690  0.1488
18876THY    HA462371   0.499   7.465   6.236  0.9996  0.6441  1.1147
18876THY    CA562372   0.642   7.368   6.096  0.4217 -0.2216 -0.5872
18876THY    CM162373   0.529   7.317   6.002 -0.0595 -0.0311 -1.5301
18876THY    HM162374   0.577   7.241   5.938  1.8776  0.0569 -0.4604
18876THY    HM262375   0.486   7.387   5.929 -0.6448 -0.3492 -2.2048
18876THY    HM362376   0.459   7.264   6.067  0.8115  0.3430 -2.2669
18876THY    CA662377   0.773   7.350   6.066  0.2071  0.0331 -0.0056
18876THY    HA662378   0.804   7.287   5.984  0.8600  0.4771 -0.2625
18877THY      O62379   1.520   6.807   7.656  0.8004  0.2182  0.2366
18877THY     HO62380   1.518   6.755   7.738  0.4220 -0.1691 -0.3734
18877THY    CA162381   1.415   6.758   7.584  0.3419 -0.7429 -0.5377
18877THY    CA262382   1.345   6.837   7.485 -0.2383 -0.4520  0.7076
18877THY    CP162383   1.405   6.974   7.451  0.3663  0.7712 -0.6287
18877THY    HP162384   1.501   6.998   7.498  1.9442 -2.7192  0.5638
18877THY    CP262385   1.310   7.084   7.495  0.3450 -0.0145  0.2687
18877THY    HP262386   1.216   7.074   7.440  0.4894 -0.0525 -1.0252
18877THY    HP362387   1.356   7.184   7.491  1.2556 -1.0305 -0.1636
18877THY    HP462388   1.275   7.066   7.597 -0.8620 -0.4293  0.1779
18877THY    CP362389   1.422   6.992   7.295 -0.4359 -1.1468 -0.6684
18877THY    HP562390   1.483   6.907   7.262 -0.7684  1.9371 -2.2485
18877THY    HP662391   1.465   7.091   7.277 -0.4359  1.1217 -0.2056
18877THY    HP762392   1.327   6.987   7.240 -2.1782  1.6048  0.1906
18877THY    CA362393   1.239   6.781   7.405  0.5908 -0.7092  0.7645
18877THY    HA362394   1.192   6.832   7.321  0.0199 -1.7016 -1.3204
18877THY    CA462395   1.186   6.655   7.444  0.0361  0.2579 -0.0371
18877THY    HA462396   1.103   6.607   7.393 -2.6886  2.4190  2.0247
18877THY    CA562397   1.261   6.583   7.538  1.0882 -0.2049 -0.0736
18877THY    CM162398   1.212   6.439   7.569 -0.8929 -0.1550  0.2092
18877THY    HM162399   1.210   6.370   7.483 -0.0076  1.2057 -1.6084
18877THY    HM262400   1.111   6.443   7.612 -1.1305 -0.7284  4.3727
18877THY    HM362401   1.284   6.392   7.636 -0.3626 -0.0937  1.1042
18877THY    CA662402   1.367   6.629   7.609 -0.1103 -0.4720 -0.1652
18877THY    HA662403   1.418   6.563   7.679 -1.3116  0.8855  0.3015
18878THY      O62404   3.706   8.471   3.054 -0.2164  0.2908  0.3373
18878THY     HO62405   3.682   8.529   2.980 -2.5292  1.7423  1.3981
18878THY    CA162406   3.757   8.551   3.148  0.6244  0.0308 -0.2757
18878THY    CA262407   3.724   8.537   3.286  0.1489  0.0404 -0.3880
18878THY    CP162408   3.638   8.426   3.335 -0.1785 -0.3216 -0.3946
18878THY    HP162409   3.595   8.376   3.248  2.4653 -1.1004 -1.5014
18878THY    CP262410   3.523   8.462   3.429  0.1760 -0.1110 -0.5477
18878THY    HP262411   3.466   8.371   3.447 -1.6734 -1.7443  0.2258
18878THY    HP362412   3.457   8.539   3.389  0.3752  0.4133 -0.0995
18878THY    HP462413   3.563   8.488   3.528 -0.2376 -0.3328  1.0370
18878THY    CP362414   3.723   8.323   3.406  0.4659 -0.3314  0.3859
18878THY    HP562415   3.660   8.251   3.460  2.6307 -0.8564 -2.0664
18878THY    HP662416   3.784   8.372   3.483 -1.0343  1.5846 -0.5923
18878THY    HP762417   3.772   8.265   3.327 -2.2464  0.0720 -2.7690
18878THY    CA362418   3.771   8.633   3.377 -0.2249 -0.2618  0.1600
18878THY    HA362419   3.745   8.614   3.481  0.8158  0.3862  2.0301
18878THY    CA462420   3.848   8.735   3.321 -0.2300  0.4146 -0.0598
18878THY    HA462421   3.896   8.801   3.393  0.0319  1.6305 -1.5252
18878THY    CA562422   3.875   8.756   3.183  0.1452  0.0870  0.2337
18878THY    CM162423   3.981   8.860   3.136 -1.1375 -0.3173  0.1649
18878THY    HM162424   3.963   8.927   3.052 -1.3273 -0.4516 -0.0523
18878THY    HM262425   4.081   8.815   3.125 -1.9608  3.5883 -3.2657
18878THY    HM362426   4.015   8.925   3.218 -1.3548 -0.8574  0.9737
18878THY    CA662427   3.819   8.661   3.099  0.0086  0.8195  0.0801
18878THY    HA662428   3.848   8.668   2.995 -0.8180  0.4523 -1.4995
18879THY      O62429   0.932   8.874   3.164 -0.1227  0.2439 -0.4674
18879THY     HO62430   0.882   8.811   3.219  1.2064  2.0596  0.0122
18879THY    CA162431   0.953   8.983   3.247  0.5827 -0.1126  0.0380
18879THY    CA262432   0.995   9.107   3.192  0.3930 -0.9754  0.0650
18879THY    CP162433   1.016   9.120   3.042 -0.0682  0.4877 -0.1532
18879THY    HP162434   1.008   9.023   2.992 -0.9297  0.3316 -0.0148
18879THY    CP262435   1.151   9.189   3.012 -0.1138  0.1319  0.1157
18879THY    HP262436   1.163   9.199   2.904 -0.5284 -0.0660 -1.2366
18879THY    HP362437   1.235   9.137   3.059  0.7130  0.9324  2.0747
18879THY    HP462438   1.160   9.289   3.057  1.8854  0.6415 -0.2499
18879THY    CP362439   0.900   9.200   2.981 -0.2945 -0.5503 -0.1254
18879THY    HP562440   0.884   9.298   3.027  0.2259  0.6982 -0.6074
18879THY    HP662441   0.818   9.143   3.028 -0.3839  1.8001  1.7927
18879THY    HP762442   0.885   9.207   2.872  1.2675 -0.7134  1.1038
18879THY    CA362443   1.021   9.216   3.279 -0.3838  0.8093  0.5945
18879THY    HA362444   1.054   9.316   3.251  0.7914 -0.7033 -0.1742
18879THY    CA462445   1.006   9.189   3.417  0.2874 -0.1590 -0.3898
18879THY    HA462446   1.034   9.270   3.483 -0.9262 -1.4926  1.1975
18879THY    CA562447   0.967   9.065   3.473 -0.1471  0.5716  0.0275
18879THY    CM162448   0.968   9.036   3.616  0.6571 -0.3528  0.0508
18879THY    HM162449   1.028   9.110   3.669 -0.0173  0.3196  0.1258
18879THY    HM262450   1.005   8.934   3.635 -0.2665 -0.1885 -0.2634
18879THY    HM362451   0.872   9.028   3.667  1.8337  1.7724 -1.5755
18879THY    CA662452   0.940   8.959   3.383  0.4250  0.0232 -0.0381
18879THY    HA662453   0.903   8.864   3.421  0.6496  0.6477  0.1228
18880THY      O62454   3.853   3.196   2.324  0.2137 -0.1751 -0.1313
18880THY     HO62455   3.811   3.282   2.341 -2.7149  0.5701 -1.5955
18880THY    CA162456   3.740   3.120   2.326  0.0519 -0.1199 -0.2975
18880THY    CA262457   3.741   2.979   2.328  1.0419  0.3920 -0.6341
18880THY    CP162458   3.866   2.896   2.308 -0.2129 -0.1800  0.1643
18880THY    HP162459   3.953   2.922   2.370 -1.9229  2.1230  0.6153
18880THY    CP262460   3.887   2.911   2.157  0.3069 -0.6855  0.7977
18880THY    HP262461   3.815   2.851   2.099  0.2147 -1.9457  2.0771
18880THY    HP362462   3.989   2.875   2.141 -0.2539  0.3417 -1.4279
18880THY    HP462463   3.878   3.011   2.112  0.0407  0.4418  1.2896
18880THY    CP362464   3.859   2.749   2.338  0.1041 -0.1869 -0.2405
18880THY    HP562465   3.957   2.709   2.306  0.5109  1.1979 -0.3911
18880THY    HP662466   3.779   2.706   2.277  1.6878 -2.4139 -0.2333
18880THY    HP762467   3.852   2.722   2.444  0.1730 -0.5656 -1.8751
18880THY    CA362468   3.621   2.906   2.345  0.5029 -0.1375  0.0229
18880THY    HA362469   3.604   2.799   2.345 -2.5221  2.4482  0.3638
18880THY    CA462470   3.503   2.980   2.379 -0.0774 -0.0409  0.7053
18880THY    HA462471   3.408   2.928   2.381 -0.0942  0.5005  0.7528
18880THY    CA562472   3.507   3.122   2.375 -0.3211  0.0830  0.4897
18880THY    CM162473   3.381   3.197   2.396  0.0172 -0.1148 -0.1638
18880THY    HM162474   3.383   3.269   2.478  2.6213 -0.9744  0.8533
18880THY    HM262475   3.306   3.123   2.425  0.1583  1.1877  0.1869
18880THY    HM362476   3.350   3.249   2.304  0.5473 -1.6104 -2.3595
18880THY    CA662477   3.622   3.196   2.351  0.9724  0.0912  0.2132
18880THY    HA662478   3.614   3.305   2.351 -1.8607  0.3463  0.0906
18881THY      O62479   8.907   3.422   3.919  0.3573 -0.1799  0.2221
18881THY     HO62480   8.971   3.388   3.854  2.0974  0.2980  2.3515
18881THY    CA162481   8.793   3.425   3.849 -0.2984  0.2784 -0.0671
18881THY    CA262482   8.700   3.520   3.880  0.2235 -0.7425  0.0387
18881THY    CP162483   8.722   3.623   3.991  0.3389 -0.0890  0.0647
18881THY    HP162484   8.806   3.593   4.053  0.2829 -0.9511 -2.0141
18881THY    CP262485   8.613   3.607   4.087  0.0406 -0.2146  0.3500
18881THY    HP262486   8.635   3.683   4.163  3.0240 -0.1815 -0.4138
18881THY    HP362487   8.614   3.507   4.131  0.8790  1.1008  0.9077
18881THY    HP462488   8.512   3.614   4.044 -0.5471  0.4020 -2.9601
18881THY    CP362489   8.731   3.763   3.936 -0.1637  0.7364  0.0669
18881THY    HP562490   8.777   3.829   4.010 -0.7793 -0.3668  1.7946
18881THY    HP662491   8.633   3.809   3.921 -0.0892 -2.3247 -0.5385
18881THY    HP762492   8.777   3.767   3.836  0.7415  1.0839 -1.0881
18881THY    CA362493   8.582   3.532   3.805  0.0240 -0.0565 -0.0395
18881THY    HA362494   8.503   3.605   3.821 -0.2126 -1.2420 -0.0042
18881THY    CA462495   8.562   3.446   3.695 -0.1084  0.5156 -0.5379
18881THY    HA462496   8.472   3.460   3.636 -1.8032  3.1526  0.3934
18881THY    CA562497   8.665   3.355   3.659  0.3372  1.0006 -0.1598
18881THY    CM162498   8.659   3.268   3.530  0.2682 -0.2471 -0.4878
18881THY    HM162499   8.620   3.323   3.444 -1.0677  1.4561  1.3909
18881THY    HM262500   8.581   3.192   3.539 -2.0241 -0.2686  1.7559
18881THY    HM362501   8.755   3.219   3.510 -0.6781 -1.5945 -1.9100
18881THY    CA662502   8.775   3.342   3.739  0.4950 -0.8755 -0.2147
18881THY    HA662503   8.859   3.279   3.709  0.8049  1.4674 -1.0063
18882THY      O62504   8.271   7.297   5.484 -0.4758 -0.4259  0.6816
18882THY     HO62505   8.202   7.296   5.416  2.6474 -3.9554 -0.5576
18882THY    CA162506   8.231   7.383   5.577  0.3546  0.2954 -0.3119
18882THY    CA262507   8.309   7.488   5.627 -0.5747  0.5172  0.5881
18882THY    CP162508   8.449   7.504   5.577  0.6502 -0.1254  0.2714
18882THY    HP162509   8.456   7.469   5.473 -0.7465 -0.6938  1.5718
18882THY    CP262510   8.535   7.421   5.664  0.7473 -0.0212  0.8471
18882THY    HP262511   8.523   7.458   5.767 -1.5655 -0.5657  1.8094
18882THY    HP362512   8.643   7.422   5.647  0.7635 -0.0430 -0.3016
18882THY    HP462513   8.504   7.316   5.663  0.0575 -1.4122  1.0463
18882THY    CP362514   8.503   7.644   5.566 -0.7137 -0.2711 -0.1203
18882THY    HP562515   8.427   7.713   5.526  0.4287 -0.7781  0.8736
18882THY    HP662516   8.597   7.653   5.511  2.1661  3.5193 -3.5573
18882THY    HP762517   8.512   7.678   5.670  1.1157 -0.2633 -0.5553
18882THY    CA362518   8.247   7.580   5.718  0.5788  0.2130 -0.0077
18882THY    HA362519   8.309   7.662   5.751 -1.7107  1.2513  1.3915
18882THY    CA462520   8.121   7.557   5.764  0.3450  0.0973 -0.1347
18882THY    HA462521   8.066   7.621   5.832  0.1328 -0.4725  0.3025
18882THY    CA562522   8.047   7.444   5.722 -0.5969 -0.1464  0.6443
18882THY    CM162523   7.902   7.429   5.759 -0.0248 -0.4088 -0.4257
18882THY    HM162524   7.857   7.528   5.774  0.2001  1.0966 -0.5337
18882THY    HM262525   7.898   7.366   5.849  2.4996 -0.4420 -0.7524
18882THY    HM362526   7.847   7.362   5.691  0.2842  0.3026 -1.4274
18882THY    CA662527   8.105   7.356   5.628  0.1451 -0.2752  0.0858
18882THY    HA662528   8.037   7.278   5.598  1.0879 -0.0857 -0.8330
18883THY      O62529   1.802   2.495   6.688 -0.2011 -0.0123 -0.7918
18883THY     HO62530   1.839   2.527   6.604 -1.7141 -0.0259  1.0863
18883THY    CA162531   1.693   2.430   6.644  0.5905 -1.4723  0.4089
18883THY    CA262532   1.578   2.408   6.726  0.0952  0.7664 -0.1910
18883THY    CP162533   1.562   2.477   6.860 -0.0045 -0.2332  0.0833
18883THY    HP162534   1.659   2.490   6.910  0.4138 -1.2473  0.9849
18883THY    CP262535   1.485   2.394   6.975 -0.2167 -0.3712 -0.2888
18883THY    HP262536   1.475   2.458   7.063 -0.5976  1.0833 -2.2749
18883THY    HP362537   1.545   2.306   7.000 -1.4615 -2.5867 -1.8560
18883THY    HP462538   1.385   2.368   6.938 -1.5014  0.7557  2.6516
18883THY    CP362539   1.506   2.614   6.843 -0.7032 -0.2886 -0.1695
18883THY    HP562540   1.397   2.624   6.844 -0.6906 -0.4369 -0.0229
18883THY    HP662541   1.530   2.643   6.740  0.6807  0.0665  0.0261
18883THY    HP762542   1.553   2.689   6.909 -0.3707 -2.8384  2.0168
18883THY    CA362543   1.459   2.349   6.662  0.2784 -0.7971  0.0707
18883THY    HA362544   1.363   2.342   6.712  0.8265  0.6608  1.9626
18883THY    CA462545   1.463   2.300   6.528  0.3277 -0.2397  0.3111
18883THY    HA462546   1.383   2.249   6.476  1.5983 -0.4394 -1.5458
18883THY    CA562547   1.585   2.314   6.457  0.1063  0.1158 -0.8780
18883THY    CM162548   1.592   2.241   6.329 -0.5351  0.8463  0.5338
18883THY    HM162549   1.519   2.159   6.326 -2.1824 -2.0601  1.9598
18883THY    HM262550   1.692   2.196   6.320  1.0685  3.8232  3.1365
18883THY    HM362551   1.572   2.312   6.248  0.1005 -1.4266 -1.7174
18883THY    CA662552   1.697   2.382   6.516 -0.7023 -0.0126  0.0876
18883THY    HA662553   1.792   2.385   6.465  0.6943  2.0875 -2.7407
18884THY      O62554   7.773   3.364   2.637 -0.7162 -0.1893 -1.0197
18884THY     HO62555   7.843   3.303   2.607  0.2820 -0.8050  0.3715
18884THY    CA162556   7.812   3.371   2.767 -0.4253 -0.2553 -0.0899
18884THY    CA262557   7.802   3.493   2.828 -0.2296  0.0867  0.3448
18884THY    CP162558   7.769   3.614   2.748 -0.3653  0.0121 -0.1754
18884THY    HP162559   7.732   3.586   2.648  0.2155 -0.2630  0.0255
18884THY    CP262560   7.891   3.701   2.723  0.5569 -0.3151  0.5864
18884THY    HP262561   7.871   3.799   2.679 -0.4833 -0.9139  0.1220
18884THY    HP362562   7.966   3.648   2.662 -0.4465 -1.3691  0.3436
18884THY    HP462563   7.935   3.720   2.821  1.3008 -0.9721  2.4263
18884THY    CP362564   7.655   3.698   2.822 -0.1244 -0.3420  0.7833
18884THY    HP562565   7.623   3.777   2.753  0.5903 -2.5375 -0.7710
18884THY    HP662566   7.681   3.732   2.923 -2.3208  2.1256 -3.9792
18884THY    HP762567   7.566   3.637   2.837 -1.5163 -0.2701  2.7402
18884THY    CA362568   7.821   3.497   2.966  0.0997 -0.5240 -0.1044
18884THY    HA362569   7.810   3.584   3.030  0.2471 -0.2821 -0.2599
18884THY    CA462570   7.851   3.379   3.030 -1.1573  0.2615  0.4412
18884THY    HA462571   7.869   3.380   3.137 -0.0240  0.1458 -1.8002
18884THY    CA562572   7.862   3.257   2.964  0.6825  0.1235  0.6224
18884THY    CM162573   7.885   3.140   3.044 -0.1790  0.3935 -0.0877
18884THY    HM162574   7.860   3.149   3.150 -1.0109  0.3071 -1.0463
18884THY    HM262575   7.988   3.106   3.028  0.2779 -0.2471  1.5304
18884THY    HM362576   7.815   3.060   3.015 -0.9191  1.2331  0.2394
18884THY    CA662577   7.833   3.253   2.829 -0.1921 -0.2053  0.4215
18884THY    HA662578   7.834   3.162   2.770  0.3356 -0.8753  0.8472
18885THY      O62579   1.636   2.427   4.203  0.1524  0.0737 -0.6636
18885THY     HO62580   1.704   2.492   4.181 -2.3364  1.2885  2.5930
18885THY    CA162581   1.627   2.426   4.338 -0.1200 -0.6804 -0.3366
18885THY    CA262582   1.509   2.412   4.410 -0.1701  0.4826  0.2616
18885THY    CP162583   1.379   2.415   4.321  0.0418 -0.6047  0.2218
18885THY    HP162584   1.402   2.368   4.225  0.4466 -0.5348  0.2728
18885THY    CP262585   1.327   2.557   4.323 -0.0997 -0.1866  0.5258
18885THY    HP262586   1.297   2.595   4.422  1.8369  0.3939  0.6521
18885THY    HP362587   1.244   2.580   4.256  0.9833 -2.4244 -1.6859
18885THY    HP462588   1.398   2.628   4.278 -0.6270 -0.7735  0.6943
18885THY    CP362589   1.278   2.314   4.373  0.0677 -0.1107 -1.1398
18885THY    HP562590   1.311   2.216   4.410 -0.7879  2.6680 -0.4620
18885THY    HP662591   1.199   2.312   4.296  1.1327 -1.4919  2.1965
18885THY    HP762592   1.235   2.358   4.463  1.8818  0.3270 -0.1713
18885THY    CA362593   1.508   2.410   4.553  0.4572  0.6606 -0.0739
18885THY    HA362594   1.414   2.412   4.608 -0.6036 -1.0793  0.8951
18885THY    CA462595   1.622   2.435   4.614  0.7440 -0.4339  0.1702
18885THY    HA462596   1.623   2.438   4.722 -0.0622 -0.4019 -0.3857
18885THY    CA562597   1.743   2.441   4.547 -0.1994  0.2190 -0.2162
18885THY    CM162598   1.872   2.445   4.624  0.7119  0.1646 -0.4559
18885THY    HM162599   1.867   2.527   4.696 -1.1381  1.2762 -1.4797
18885THY    HM262600   1.958   2.450   4.556 -0.3821 -1.2965 -0.9460
18885THY    HM362601   1.887   2.353   4.682 -0.3504  0.7729 -0.2698
18885THY    CA662602   1.747   2.435   4.403 -0.1351 -0.6172 -0.2285
18885THY    HA662603   1.840   2.428   4.347  0.1112 -0.5125  1.7678
18886THY      O62604   8.013   4.057   1.766  0.0650 -0.3346  0.4310
18886THY     HO62605   8.020   4.146   1.729 -0.0406  0.2781  0.6964
18886THY    CA162606   7.913   4.072   1.857  0.3229  0.8225 -0.1914
18886THY    CA262607   7.912   3.993   1.983  0.1892  0.2913 -0.4397
18886THY    CP162608   8.007   3.873   1.999 -0.7327 -0.1983 -0.2092
18886THY    HP162609   8.094   3.885   1.934 -0.5784 -0.3459 -1.8260
18886THY    CP262610   7.955   3.732   1.953 -0.5408 -0.0127  0.0708
18886THY    HP262611   7.911   3.684   2.041 -1.0019  0.5004  1.3912
18886THY    HP362612   8.036   3.671   1.910 -1.0013 -0.4264 -0.2493
18886THY    HP462613   7.872   3.747   1.884 -1.0295  0.9420  2.1067
18886THY    CP362614   8.058   3.867   2.146  0.1291 -0.3338 -1.0774
18886THY    HP562615   8.096   3.965   2.179  0.0854  1.2906 -1.5695
18886THY    HP662616   8.138   3.793   2.156  0.4539 -0.4612 -0.7514
18886THY    HP762617   7.972   3.840   2.208  0.3499  0.4110 -0.1421
18886THY    CA362618   7.805   4.022   2.071  0.6668 -0.1512 -0.0435
18886THY    HA362619   7.789   3.963   2.161  0.7952  0.1412  0.3662
18886THY    CA462620   7.713   4.125   2.046 -0.6600  0.3520  0.1320
18886THY    HA462621   7.634   4.147   2.118  1.2189  1.5265  3.9696
18886THY    CA562622   7.724   4.204   1.929  0.0715 -0.0985 -0.2099
18886THY    CM162623   7.619   4.305   1.885 -0.4391  0.0547 -0.1049
18886THY    HM162624   7.544   4.303   1.965  1.9365  2.4212 -0.2719
18886THY    HM262625   7.585   4.265   1.788 -0.6525 -0.0704  0.3839
18886THY    HM362626   7.645   4.409   1.868 -2.7739 -0.5889  0.4406
18886THY    CA662627   7.825   4.182   1.834  0.1195 -0.0231 -0.8187
18886THY    HA662628   7.818   4.238   1.742 -0.6118  1.3248  1.4167
18887THY      O62629   7.470   6.506   3.957 -0.0053 -0.0298  0.3584
18887THY     HO62630   7.496   6.596   3.929  1.1636 -2.6221 -0.6680
18887THY    CA162631   7.533   6.487   4.069 -0.0779  0.1414  0.0181
18887THY    CA262632   7.572   6.366   4.112 -0.1228  0.0909  0.2570
18887THY    CP162633   7.528   6.238   4.039  0.1373  0.1267 -0.0002
18887THY    HP162634   7.520   6.251   3.930  1.4037 -0.3264 -2.3902
18887THY    CP262635   7.390   6.193   4.081  0.5251 -0.1344  0.3068
18887THY    HP262636   7.350   6.105   4.028 -1.8067  2.6296 -0.4505
18887THY    HP362637   7.327   6.282   4.070  1.2661  2.7049  1.2881
18887THY    HP462638   7.392   6.171   4.188 -2.2743  0.2510  1.5419
18887THY    CP362639   7.636   6.128   4.039  0.5698  0.2250  0.7988
18887THY    HP562640   7.645   6.068   4.130 -3.8227 -1.0206 -2.2443
18887THY    HP662641   7.729   6.170   3.999 -0.3375 -2.7854  0.1937
18887THY    HP762642   7.607   6.061   3.957  0.1856  0.5002  0.6209
18887THY    CA362643   7.619   6.351   4.242  0.1089 -0.8161  0.1794
18887THY    HA362644   7.652   6.259   4.289  0.4202  2.9009  1.9917
18887THY    CA462645   7.673   6.468   4.306 -0.4256  0.6730  0.1294
18887THY    HA462646   7.738   6.462   4.393  2.3429 -1.3135 -0.9227
18887THY    CA562647   7.659   6.594   4.255 -0.6356  0.3690 -0.3704
18887THY    CM162648   7.720   6.717   4.317 -0.5431 -0.5840 -0.0132
18887THY    HM162649   7.727   6.797   4.242  2.1958 -0.1686  0.2465
18887THY    HM262650   7.822   6.698   4.351 -0.6631  0.1360  0.5950
18887THY    HM362651   7.668   6.736   4.411 -0.6975 -0.5939 -0.3792
18887THY    CA662652   7.583   6.602   4.139  0.1144  0.1215 -0.4886
18887THY    HA662653   7.558   6.702   4.103  1.7714 -1.3894 -0.5560
18888THY      O62654   6.847   1.584   3.565  0.2362 -0.4569  0.2948
18888THY     HO62655   6.911   1.562   3.496  1.9155  1.6198 -1.8534
18888THY    CA162656   6.854   1.717   3.606  0.2575  0.1723 -0.3071
18888THY    CA262657   6.811   1.764   3.728  0.4360  0.1629 -0.1227
18888THY    CP162658   6.781   1.670   3.846  0.5750 -0.3563  0.3927
18888THY    HP162659   6.767   1.566   3.814  1.6057  0.7749 -0.1243
18888THY    CP262660   6.657   1.706   3.938 -0.6534  0.1741 -0.5955
18888THY    HP262661   6.667   1.799   3.994  0.1381 -0.1868 -0.4470
18888THY    HP362662   6.640   1.628   4.013  0.0637 -1.1871 -2.1475
18888THY    HP462663   6.565   1.722   3.880 -1.2171  1.6555  2.0598
18888THY    CP362664   6.908   1.664   3.931 -0.0331  0.1101  0.4272
18888THY    HP562665   6.928   1.762   3.976 -0.7572 -2.5529  1.9214
18888THY    HP662666   6.995   1.645   3.867 -0.8430 -1.7152  2.4118
18888THY    HP762667   6.913   1.592   4.013  1.5995  0.0235  0.4153
18888THY    CA362668   6.807   1.906   3.754  0.9602  0.2096  1.2031
18888THY    HA362669   6.773   1.953   3.845 -1.2815  0.8619 -1.4114
18888THY    CA462670   6.842   1.992   3.647 -0.5759 -0.4046  0.2124
18888THY    HA462671   6.829   2.099   3.661 -1.0406 -0.5987  0.1847
18888THY    CA562672   6.887   1.937   3.527 -0.1918  0.4144  0.0426
18888THY    CM162673   6.926   2.024   3.414 -0.8698  0.5679  0.0947
18888THY    HM162674   7.033   2.047   3.416 -0.6657 -1.2751 -0.5195
18888THY    HM262675   6.861   2.112   3.409 -1.4454 -0.3933 -0.3679
18888THY    HM362676   6.908   1.973   3.319  0.4288 -0.6535  1.8071
18888THY    CA662677   6.890   1.805   3.506 -0.1103  0.5356 -0.1392
18888THY    HA662678   6.918   1.769   3.407 -1.0566 -0.4934  1.8057
18889THY      O62679   1.765   0.570   4.810  0.0738  0.6229  0.4692
18889THY     HO62680   1.814   0.625   4.875  2.2170 -0.9536  0.5365
18889THY    CA162681   1.645   0.632   4.794 -0.5688 -0.4160  0.1539
18889THY    CA262682   1.547   0.571   4.709  0.9012  0.8686  0.3338
18889THY    CP162683   1.580   0.442   4.641  0.8845  0.3358  0.0414
18889THY    HP162684   1.682   0.405   4.654  0.3953  2.8740 -0.5595
18889THY    CP262685   1.537   0.443   4.489  0.6367 -0.1546 -1.0063
18889THY    HP262686   1.584   0.359   4.437  1.6922 -0.6610 -0.1286
18889THY    HP362687   1.580   0.533   4.443  0.5205 -0.6220 -1.1863
18889THY    HP462688   1.428   0.437   4.473  0.3442  1.5393 -0.7457
18889THY    CP362689   1.499   0.329   4.697 -0.0922  0.4494  0.6350
18889THY    HP562690   1.543   0.232   4.675  2.0405  1.7523  1.2422
18889THY    HP662691   1.398   0.322   4.654 -0.1101  0.8169 -1.9907
18889THY    HP762692   1.476   0.339   4.803  0.2531  0.5161  0.7234
18889THY    CA362693   1.429   0.645   4.682  0.2035  0.2191 -0.9065
18889THY    HA362694   1.362   0.601   4.608  0.0804  0.0869 -0.4992
18889THY    CA462695   1.410   0.769   4.755  0.6161  0.4099 -0.3409
18889THY    HA462696   1.319   0.826   4.740  1.8108  0.6375  1.7546
18889THY    CA562697   1.518   0.825   4.829 -0.5069 -0.1544  0.0909
18889THY    CM162698   1.508   0.957   4.899  0.4983  0.3351 -0.4570
18889THY    HM162699   1.605   1.004   4.918 -0.4383  0.3066  1.6086
18889THY    HM262700   1.455   0.942   4.994  1.8861  1.0310 -1.0559
18889THY    HM362701   1.462   1.023   4.824  3.6218 -1.8690 -0.5537
18889THY    CA662702   1.624   0.752   4.851 -0.4106 -1.1303  0.1798
18889THY    HA662703   1.707   0.784   4.913  1.8746 -4.0383  0.3055
18890THY      O62704   8.882   6.887   4.176 -0.2156  0.1873  0.2101
18890THY     HO62705   8.913   6.930   4.094 -0.2016 -1.1802 -2.2291
18890THY    CA162706   8.809   6.786   4.126 -0.2484  0.3033 -0.2221
18890THY    CA262707   8.801   6.663   4.182 -0.1630 -0.2325  0.0459
18890THY    CP162708   8.865   6.640   4.322 -0.2165  0.0561  0.3449
18890THY    HP162709   8.857   6.734   4.377 -1.3020  1.3232 -0.4468
18890THY    CP262710   9.024   6.620   4.305 -0.0672  0.1219 -0.1498
18890THY    HP262711   9.054   6.520   4.271 -1.3455 -0.0769 -0.4812
18890THY    HP362712   9.070   6.626   4.405 -0.9331  0.7473 -2.4695
18890THY    HP462713   9.068   6.690   4.234  0.4499 -0.0786 -0.6671
18890THY    CP362714   8.799   6.530   4.409  0.2435 -0.3034  0.0853
18890THY    HP562715   8.843   6.523   4.509 -0.7047  0.1291  0.1773
18890THY    HP662716   8.814   6.434   4.357 -0.1688 -0.4350  0.0897
18890THY    HP762717   8.692   6.545   4.424  0.2231 -1.0288  0.7441
18890THY    CA362718   8.733   6.553   4.119  0.7672 -0.6101  0.5237
18890THY    HA362719   8.737   6.452   4.159 -0.6632  1.2676  1.1647
18890THY    CA462720   8.670   6.574   3.994  0.3318 -0.2954  0.1689
18890THY    HA462721   8.624   6.497   3.932  1.2993 -0.9569  0.1038
18890THY    CA562722   8.679   6.704   3.938  1.2998 -0.0900  0.5991
18890THY    CM162723   8.627   6.730   3.800 -0.0349  0.9122  0.2363
18890THY    HM162724   8.646   6.823   3.745 -4.1921 -0.8541  0.2652
18890THY    HM262725   8.517   6.737   3.805 -0.0807  1.4475 -0.8086
18890THY    HM362726   8.641   6.650   3.727  1.1469 -2.3428  3.1149
18890THY    CA662727   8.747   6.804   4.004 -0.0197 -0.4130  0.7886
18890THY    HA662728   8.747   6.901   3.956  1.2921 -0.3384  0.8356
18891THY      O62729   8.281   5.687   3.601  0.1059 -0.3365  0.2841
18891THY     HO62730   8.268   5.675   3.505  0.5441 -0.3932  0.2504
18891THY    CA162731   8.382   5.612   3.640  0.7202  0.1893  0.2747
18891THY    CA262732   8.440   5.634   3.770  0.3068  0.2116  0.0904
18891THY    CP162733   8.384   5.741   3.866 -0.3615  0.1374  0.4714
18891THY    HP162734   8.290   5.779   3.824 -0.8570 -0.4239 -1.2771
18891THY    CP262735   8.484   5.852   3.875  0.4071  0.2398 -0.3880
18891THY    HP262736   8.445   5.934   3.936  0.7825  1.6989 -1.2668
18891THY    HP362737   8.497   5.887   3.772 -1.0698  0.0337 -0.3656
18891THY    HP462738   8.574   5.807   3.919 -0.3861 -0.1240 -2.4596
18891THY    CP362739   8.342   5.685   4.006  1.1533 -0.3215  0.1515
18891THY    HP562740   8.295   5.755   4.076  1.3028 -1.2917  1.2535
18891THY    HP662741   8.428   5.632   4.048 -0.8620  0.7730 -2.4750
18891THY    HP762742   8.271   5.605   3.982 -0.7552 -1.4708  2.0888
18891THY    CA362743   8.545   5.552   3.809  0.3832  0.3753  0.5059
18891THY    HA362744   8.597   5.559   3.904  0.5165  0.4525 -1.2214
18891THY    CA462745   8.603   5.458   3.720  0.5383 -0.1971 -0.8727
18891THY    HA462746   8.689   5.399   3.752  0.2299  1.1547 -0.5989
18891THY    CA562747   8.545   5.446   3.590  0.8909 -0.1773  0.3766
18891THY    CM162748   8.594   5.341   3.492  0.1076 -0.8825 -0.0830
18891THY    HM162749   8.681   5.374   3.434  2.0017  0.3442 -2.6236
18891THY    HM262750   8.515   5.297   3.429  0.1746  0.9664 -3.1210
18891THY    HM362751   8.639   5.258   3.547 -0.1267 -1.8154 -0.8359
18891THY    CA662752   8.429   5.514   3.558  0.8577  0.4026 -0.5225
18891THY    HA662753   8.390   5.494   3.459  0.1609  0.6787 -0.5495
18892THY      O62754   5.419   8.593   3.127  0.3334 -0.2419  0.1219
18892THY     HO62755   5.375   8.506   3.133  0.7405  0.7945 -0.0254
18892THY    CA162756   5.500   8.598   3.239 -0.0666  0.4372  0.1098
18892THY    CA262757   5.524   8.725   3.298 -0.5449 -0.3091  1.0884
18892THY    CP162758   5.453   8.849   3.245  0.1992 -0.0534  0.1093
18892THY    HP162759   5.355   8.817   3.209  1.1422 -0.9578 -1.9227
18892THY    CP262760   5.521   8.918   3.126  0.6188  0.0961 -0.9954
18892THY    HP262761   5.559   8.838   3.061  0.2009  1.2141 -2.1419
18892THY    HP362762   5.613   8.975   3.146  1.8103 -2.7656 -1.7278
18892THY    HP462763   5.453   8.985   3.073 -0.2616 -0.9862 -2.6714
18892THY    CP362764   5.426   8.957   3.346 -0.4552  0.6929  0.2361
18892THY    HP562765   5.527   8.996   3.363 -0.0460  0.0856 -0.5284
18892THY    HP662766   5.369   8.920   3.432 -1.5912 -1.2030 -2.8039
18892THY    HP762767   5.373   9.045   3.307  0.7818  0.5090  0.9154
18892THY    CA362768   5.629   8.738   3.393 -0.8061 -0.1330  0.1543
18892THY    HA362769   5.647   8.834   3.439 -2.1729  1.1882 -0.1816
18892THY    CA462770   5.686   8.621   3.443 -0.1176  0.2535 -0.8033
18892THY    HA462771   5.763   8.636   3.519  0.6706 -1.1238  3.2545
18892THY    CA562772   5.658   8.499   3.382  0.1577 -0.7382 -0.6149
18892THY    CM162773   5.722   8.377   3.432 -0.5517  1.0395 -0.1126
18892THY    HM162774   5.831   8.394   3.427 -0.3791  3.7313 -0.0257
18892THY    HM262775   5.699   8.294   3.364  0.4065  0.6410 -0.0735
18892THY    HM362776   5.700   8.347   3.535 -0.3540  1.6468  1.6997
18892THY    CA662777   5.571   8.489   3.277 -0.1746  0.2099 -0.0110
18892THY    HA662778   5.562   8.396   3.220  2.4269  2.3054 -1.6880
18893THY      O62779   2.318   2.615   7.936 -0.0606 -0.5027  0.1420
18893THY     HO62780   2.257   2.591   8.009 -0.1642 -0.6858 -0.1668
18893THY    CA162781   2.369   2.491   7.916 -0.4263 -0.0710 -0.3492
18893THY    CA262782   2.476   2.466   7.824  0.1051 -0.3680 -0.0852
18893THY    CP162783   2.546   2.576   7.741  0.0472  0.4622  0.3980
18893THY    HP162784   2.480   2.664   7.733 -1.6133 -2.6137 -0.9757
18893THY    CP262785   2.563   2.519   7.596 -0.4837 -0.0712 -0.1101
18893THY    HP262786   2.651   2.456   7.577 -1.3266 -2.0494 -0.7698
18893THY    HP362787   2.565   2.602   7.524  1.8944 -0.0639 -0.0841
18893THY    HP462788   2.473   2.460   7.576 -1.1769 -2.1351  1.4828
18893THY    CP362789   2.687   2.613   7.804  0.4363  0.2605 -0.0271
18893THY    HP562790   2.669   2.617   7.913 -1.2819  0.0075  0.0018
18893THY    HP662791   2.715   2.713   7.772 -1.2261  1.1900  0.7837
18893THY    HP762792   2.762   2.535   7.786 -0.3269 -0.6296 -0.5856
18893THY    CA362793   2.516   2.326   7.811  0.3759 -0.7160  0.1496
18893THY    HA362794   2.605   2.297   7.755  0.8052  0.5270 -1.0334
18893THY    CA462795   2.450   2.227   7.887  0.6884  0.3258  0.0742
18893THY    HA462796   2.473   2.123   7.867 -0.9612 -2.1481  0.0812
18893THY    CA562797   2.352   2.258   7.977 -0.1907 -0.3281 -0.2511
18893THY    CM162798   2.276   2.156   8.052  0.0065  0.3349  0.7590
18893THY    HM162799   2.269   2.178   8.159  2.1801  0.6041  0.3531
18893THY    HM262800   2.315   2.054   8.042 -0.5120  0.3667  0.5563
18893THY    HM362801   2.170   2.158   8.022  0.2747 -0.8563 -0.7776
18893THY    CA662802   2.312   2.390   7.991 -0.0901  0.7922  0.1582
18893THY    HA662803   2.224   2.406   8.054  0.6025  1.2096  2.9008
18894THY      O62804   1.582   4.389   5.974 -0.3828 -0.6492 -0.4215
18894THY     HO62805   1.509   4.325   5.979 -0.0206  1.2816 -0.7632
18894THY    CA162806   1.514   4.487   5.917  0.1923  0.0114  0.6458
18894THY    CA262807   1.538   4.623   5.936  0.2204  0.0415 -0.3185
18894THY    CP162808   1.660   4.677   6.017  0.7417  0.4446 -0.3271
18894THY    HP162809   1.689   4.612   6.100 -1.5318  1.6323  0.1071
18894THY    CP262810   1.656   4.820   6.083  0.2467  0.6828  0.4358
18894THY    HP262811   1.605   4.816   6.180 -0.3326  0.4488  1.6064
18894THY    HP362812   1.614   4.889   6.009  0.0252  0.1032 -0.3105
18894THY    HP462813   1.752   4.860   6.117  0.3062 -0.4004  1.2587
18894THY    CP362814   1.787   4.671   5.925 -1.0322  0.9179  0.5610
18894THY    HP562815   1.880   4.720   5.958  0.6088 -0.7044 -1.3151
18894THY    HP662816   1.761   4.716   5.828  2.2441 -1.2157 -1.6995
18894THY    HP762817   1.813   4.566   5.912 -1.4228  1.2412  0.4196
18894THY    CA362818   1.467   4.713   5.861  1.0311  0.0434 -0.4818
18894THY    HA362819   1.481   4.820   5.862  0.0698  1.4150 -0.3556
18894THY    CA462820   1.381   4.671   5.758  0.7089  0.1978 -0.2974
18894THY    HA462821   1.342   4.745   5.688  1.3536 -1.4145 -1.4278
18894THY    CA562822   1.367   4.533   5.736  0.5868  0.0914  0.1085
18894THY    CM162823   1.279   4.478   5.624  0.5725  0.0549 -0.1848
18894THY    HM162824   1.193   4.545   5.634  0.9275  3.0692 -0.0745
18894THY    HM262825   1.251   4.374   5.641 -0.2407  1.1859  0.2014
18894THY    HM362826   1.319   4.489   5.522 -0.3902 -0.1846  1.6148
18894THY    CA662827   1.431   4.443   5.820  0.3279  0.8217 -0.0180
18894THY    HA662828   1.423   4.340   5.787  2.0276 -1.0013  0.3719
18895THY      O62829   7.995   8.668   6.827 -0.1421  0.2062  0.7044
18895THY     HO62830   7.924   8.611   6.863 -0.9427 -1.5439  0.5329
18895THY    CA162831   8.017   8.641   6.700 -0.4696  0.0274 -0.0588
18895THY    CA262832   8.075   8.735   6.614  0.3060  0.3157  0.4921
18895THY    CP162833   8.103   8.882   6.661  1.3059  0.6773  0.1390
18895THY    HP162834   8.072   8.908   6.763  0.7655  0.1017  1.8962
18895THY    CP262835   8.027   8.986   6.577  0.5356  0.4266 -0.8870
18895THY    HP262836   8.032   9.087   6.619 -0.5460  2.5397 -1.6432
18895THY    HP362837   7.921   8.956   6.583 -0.8727 -0.0911  3.2681
18895THY    HP462838   8.057   8.970   6.473  0.2952  0.6050 -2.6963
18895THY    CP362839   8.241   8.922   6.643 -0.1629  0.0166 -0.9029
18895THY    HP562840   8.272   8.949   6.542 -1.1726 -1.2508 -4.0527
18895THY    HP662841   8.304   8.837   6.670  0.7209  0.8403 -0.0099
18895THY    HP762842   8.256   9.012   6.704  2.5853 -0.8689 -0.6889
18895THY    CA362843   8.092   8.700   6.482 -0.3421  0.5511  0.3204
18895THY    HA362844   8.139   8.773   6.417 -1.2075 -1.0781 -0.5022
18895THY    CA462845   8.043   8.575   6.423  0.6864  0.1380 -0.4717
18895THY    HA462846   8.053   8.556   6.317  0.4397  0.3624 -1.9761
18895THY    CA562847   7.973   8.488   6.503  0.5545  0.3535  0.3515
18895THY    CM162848   7.912   8.353   6.456  0.0631  0.7256 -1.2166
18895THY    HM162849   7.991   8.281   6.430 -1.1068 -2.5451 -1.5116
18895THY    HM262850   7.872   8.385   6.359 -1.5053  1.7498  0.1207
18895THY    HM362851   7.834   8.310   6.520  0.7156  2.3300 -0.1072
18895THY    CA662852   7.964   8.520   6.643  0.1608  0.0604  0.0745
18895THY    HA662853   7.908   8.455   6.710  1.4360  0.3420 -0.7692
18896THY      O62854   5.304   4.842   3.106  0.2364 -0.3257 -0.2905
18896THY     HO62855   5.400   4.851   3.108  0.2319  3.4898  0.6092
18896THY    CA162856   5.288   4.732   3.191  0.4236 -0.0945 -0.2838
18896THY    CA262857   5.176   4.719   3.276 -0.2511 -0.5376  0.3713
18896THY    CP162858   5.062   4.814   3.259 -0.4292 -0.1602  0.2851
18896THY    HP162859   5.101   4.908   3.219 -0.2209 -0.4166  0.0909
18896THY    CP262860   5.000   4.853   3.394 -0.3583  0.7287 -0.1285
18896THY    HP262861   4.966   4.772   3.459  0.9881  0.3371 -1.0602
18896THY    HP362862   4.927   4.935   3.392 -0.7217 -0.2427 -0.4601
18896THY    HP462863   5.082   4.906   3.444  0.8314 -1.0758 -0.1582
18896THY    CP362864   4.945   4.766   3.165  0.0141  0.0604 -0.0056
18896THY    HP562865   4.861   4.836   3.152 -1.2037 -0.0183 -1.4363
18896THY    HP662866   4.911   4.667   3.198  1.1732 -2.9976 -1.5507
18896THY    HP762867   4.984   4.742   3.066 -1.7175 -0.8287  0.7010
18896THY    CA362868   5.183   4.620   3.380  0.7402 -0.4649 -0.2350
18896THY    HA362869   5.093   4.603   3.438 -1.0363 -2.3843  1.9442
18896THY    CA462870   5.302   4.550   3.409 -0.8144 -0.7976 -0.0727
18896THY    HA462871   5.301   4.476   3.488  0.1392 -1.5226 -0.8914
18896THY    CA562872   5.409   4.568   3.326  0.0373  0.3504  0.0043
18896THY    CM162873   5.536   4.497   3.353 -0.3119  0.3218 -0.4171
18896THY    HM162874   5.529   4.432   3.441 -0.7984  1.4653  1.1356
18896THY    HM262875   5.626   4.560   3.357 -0.4610 -0.3624 -0.1561
18896THY    HM362876   5.555   4.422   3.276  0.7438  0.8763 -0.7453
18896THY    CA662877   5.402   4.659   3.222  0.1147  0.4900 -0.7530
18896THY    HA662878   5.489   4.669   3.158  0.8634  1.4408 -1.1093
18897THY      O62879   5.675   2.719   8.103  0.5725 -0.3848  0.2758
18897THY     HO62880   5.640   2.634   8.136  0.2636  0.3174  0.6669
18897THY    CA162881   5.675   2.706   7.969 -0.0109 -1.0334 -0.7756
18897THY    CA262882   5.677   2.809   7.876 -0.0647 -0.0286  0.0259
18897THY    CP162883   5.658   2.954   7.925 -0.1419  0.2709 -0.8340
18897THY    HP162884   5.713   2.957   8.020  0.8074 -0.2786  1.2781
18897THY    CP262885   5.513   2.981   7.961  0.0208 -0.6108  0.2631
18897THY    HP262886   5.461   2.959   7.867  1.2768 -1.1290 -0.6142
18897THY    HP362887   5.495   3.084   7.992 -3.1055  1.0662 -0.6607
18897THY    HP462888   5.476   2.911   8.037  1.8155 -0.2641 -0.3608
18897THY    CP362889   5.713   3.058   7.829  0.0437 -0.2023  0.5141
18897THY    HP562890   5.818   3.030   7.811 -0.6972 -1.7552 -1.5198
18897THY    HP662891   5.710   3.159   7.871 -1.5442  0.5421  0.1822
18897THY    HP762892   5.653   3.070   7.738 -0.7603  0.6295  4.0116
18897THY    CA362893   5.693   2.773   7.736 -0.2494 -0.1594  0.0721
18897THY    HA362894   5.716   2.845   7.659 -2.8035 -0.0550  1.0979
18897THY    CA462895   5.700   2.632   7.703 -0.1782  0.1524 -0.1051
18897THY    HA462896   5.722   2.603   7.600  0.3225  0.3743 -0.5377
18897THY    CA562897   5.680   2.531   7.798  0.0888  0.1442 -0.5659
18897THY    CM162898   5.681   2.390   7.750 -0.1328 -0.2219  0.4516
18897THY    HM162899   5.698   2.317   7.830 -1.8757  0.0104  0.2577
18897THY    HM262900   5.776   2.376   7.698  1.1031  2.1245 -0.4330
18897THY    HM362901   5.592   2.367   7.689 -0.3691 -0.1355  1.1119
18897THY    CA662902   5.670   2.572   7.937 -0.0674 -0.4420  0.1485
18897THY    HA662903   5.676   2.489   8.006 -0.8342 -0.7233 -0.1543
18898THY      O62904   7.385   7.600   6.519  0.0324 -0.3740 -0.6478
18898THY     HO62905   7.397   7.573   6.426 -1.2770 -0.8520  0.3244
18898THY    CA162906   7.444   7.721   6.529 -0.4109 -0.2122  0.0672
18898THY    CA262907   7.405   7.824   6.620  0.3325 -0.7548 -0.1039
18898THY    CP162908   7.298   7.796   6.725 -0.1250  0.1622 -0.1532
18898THY    HP162909   7.237   7.712   6.689 -1.1372 -0.6686  0.9055
18898THY    CP262910   7.204   7.912   6.754  0.4117  0.5231  0.2716
18898THY    HP262911   7.134   7.897   6.837 -1.7756 -0.9053  1.9131
18898THY    HP362912   7.146   7.933   6.663  0.1710  0.2800 -1.3067
18898THY    HP462913   7.260   8.003   6.776 -2.6147 -2.0836  3.0162
18898THY    CP362914   7.363   7.748   6.853 -0.5958 -0.4302 -0.3984
18898THY    HP562915   7.472   7.758   6.850 -0.4877 -0.5078 -1.4440
18898THY    HP662916   7.337   7.643   6.873  0.4665  2.7547 -0.1746
18898THY    HP762917   7.339   7.806   6.943 -0.4897 -2.4433  3.0041
18898THY    CA362918   7.469   7.946   6.608 -0.3463  0.3576 -0.3204
18898THY    HA362919   7.443   8.031   6.670  0.9023 -1.5403  1.5293
18898THY    CA462920   7.566   7.967   6.506  0.2416 -0.1324 -0.3213
18898THY    HA462921   7.612   8.065   6.505 -0.6983  1.5930  0.1809
18898THY    CA562922   7.608   7.867   6.433 -0.2734  0.4624  0.8114
18898THY    CM162923   7.709   7.891   6.327 -0.7580  0.0116 -0.2088
18898THY    HM162924   7.675   7.852   6.230 -0.2221 -0.1470 -0.2863
18898THY    HM262925   7.807   7.847   6.349  1.7795  2.2752  5.6371
18898THY    HM362926   7.729   7.997   6.310  0.1942 -0.7254 -0.4850
18898THY    CA662927   7.542   7.746   6.439 -0.3226 -0.1509 -0.3568
18898THY    HA662928   7.568   7.673   6.363  2.4012  0.6220 -0.3259
18899THY      O62929   5.279   8.520   4.035  0.8349 -0.1907 -0.0124
18899THY     HO62930   5.223   8.549   3.961  0.1425  0.8867  1.5107
18899THY    CA162931   5.398   8.582   4.025 -0.5378  0.6158  0.0337
18899THY    CA262932   5.488   8.589   4.134  0.0904 -0.2373  0.0536
18899THY    CP162933   5.439   8.549   4.278  0.1443 -0.3543  0.1092
18899THY    HP162934   5.372   8.462   4.272 -1.3110 -1.2953  1.2513
18899THY    CP262935   5.349   8.658   4.351 -0.1482 -0.1249 -0.1935
18899THY    HP262936   5.255   8.662   4.295  0.2644 -0.8090  0.0864
18899THY    HP362937   5.411   8.749   4.358  1.3584  1.0974 -1.2519
18899THY    HP462938   5.329   8.635   4.457 -0.2336 -0.2212 -0.5570
18899THY    CP362939   5.548   8.515   4.376  0.6856 -0.0325 -1.0351
18899THY    HP562940   5.620   8.457   4.318 -0.0766 -1.6702 -0.4017
18899THY    HP662941   5.507   8.455   4.458 -1.4921  0.5750  1.0957
18899THY    HP762942   5.593   8.604   4.422 -0.0273 -2.2738  0.5809
18899THY    CA362943   5.619   8.639   4.119 -0.2911  0.4477  0.8074
18899THY    HA362944   5.686   8.651   4.204 -0.6403  0.7157  0.8664
18899THY    CA462945   5.658   8.682   3.994 -0.3197  0.7563 -0.1902
18899THY    HA462946   5.753   8.732   3.979 -0.0392  1.1595 -0.5935
18899THY    CA562947   5.574   8.685   3.882 -0.4745  0.6527 -0.2355
18899THY    CM162948   5.639   8.711   3.748  0.1501 -0.3042 -0.2737
18899THY    HM162949   5.746   8.724   3.763  0.1810  0.7490 -1.5648
18899THY    HM262950   5.600   8.791   3.683  1.1606 -0.0536  0.4372
18899THY    HM362951   5.619   8.616   3.698 -1.7658  2.3094 -1.3537
18899THY    CA662952   5.443   8.623   3.900  0.0579 -0.2256 -0.0185
18899THY    HA662953   5.384   8.616   3.809  0.3801 -0.3402 -1.7311
18900THY      O62954   5.260   5.936   3.008 -0.0620 -0.4370  0.6459
18900THY     HO62955   5.350   5.919   2.974 -0.0275 -1.2043  2.1976
18900THY    CA162956   5.167   5.890   2.918  0.2295 -0.3872 -0.6853
18900THY    CA262957   5.030   5.898   2.931  0.0344  0.2215  0.0100
18900THY    CP162958   4.962   5.948   3.058 -0.5579  0.2214 -0.1234
18900THY    HP162959   5.041   6.005   3.107 -0.4837 -0.7048  0.5835
18900THY    CP262960   4.899   5.844   3.152 -0.1740  0.2695 -0.6756
18900THY    HP262961   4.973   5.774   3.192 -0.5936  1.1327 -0.6337
18900THY    HP362962   4.820   5.788   3.100 -0.3933 -0.5921  0.3969
18900THY    HP462963   4.858   5.905   3.233 -0.0268 -0.8360  0.9626
18900THY    CP362964   4.865   6.060   3.024 -0.2411 -0.1535 -0.1086
18900THY    HP562965   4.775   6.022   2.974 -0.0841 -1.6567  1.3934
18900THY    HP662966   4.906   6.131   2.951 -0.3943  1.3778  1.6325
18900THY    HP762967   4.841   6.109   3.120 -0.1574  0.2683 -0.8760
18900THY    CA362968   4.947   5.855   2.826 -0.1231  0.0454  0.0526
18900THY    HA362969   4.839   5.855   2.838 -0.0721  0.5093  0.0304
18900THY    CA462970   5.004   5.807   2.713 -0.5127  0.5663 -0.9196
18900THY    HA462971   4.944   5.768   2.631 -2.8861 -0.0462  3.4268
18900THY    CA562972   5.142   5.805   2.699 -0.0328  0.0809 -0.6766
18900THY    CM162973   5.181   5.750   2.570  0.8215 -0.0964  0.6280
18900THY    HM162974   5.144   5.808   2.486 -2.5393  0.0019 -1.1587
18900THY    HM262975   5.149   5.645   2.567  3.4312  3.4111 -0.4865
18900THY    HM362976   5.291   5.743   2.576  0.9735  2.0853  3.2542
18900THY    CA662977   5.226   5.839   2.803 -0.2890 -0.0304 -0.4236
18900THY    HA662978   5.333   5.834   2.788 -0.6166 -2.7586 -0.4101
18901THY      O62979   4.969   8.396   5.749  0.2279 -0.5834 -0.4188
18901THY     HO62980   5.045   8.456   5.735  0.5199  2.7156  0.1894
18901THY    CA162981   4.867   8.451   5.676  0.8009  0.2619  0.0650
18901THY    CA262982   4.745   8.379   5.645 -0.2566  0.1102  0.0836
18901THY    CP162983   4.725   8.240   5.699  0.3228  0.2009  0.1300
18901THY    HP162984   4.802   8.227   5.777 -0.8907  1.6217  1.0747
18901THY    CP262985   4.750   8.124   5.592  0.3501 -0.2700 -0.0925
18901THY    HP262986   4.702   8.156   5.498  1.4097 -1.0015 -0.5813
18901THY    HP362987   4.719   8.024   5.625 -0.3887 -0.2398  0.1360
18901THY    HP462988   4.856   8.119   5.567  0.6250  1.0807 -1.7595
18901THY    CP362989   4.588   8.211   5.772 -0.4756  0.1748 -0.9292
18901THY    HP562990   4.553   8.299   5.828 -0.7826 -1.8383  0.3031
18901THY    HP662991   4.587   8.130   5.846 -1.2399  0.5694 -0.5700
18901THY    HP762992   4.510   8.202   5.696  1.3349 -1.8719 -0.2441
18901THY    CA362993   4.643   8.436   5.569 -0.2058 -0.1103 -0.3511
18901THY    HA362994   4.558   8.373   5.543  0.5437 -1.7590 -0.7421
18901THY    CA462995   4.673   8.560   5.518 -0.5322  0.0566 -0.0682
18901THY    HA462996   4.601   8.609   5.453  0.2562 -1.1070 -0.4122
18901THY    CA562997   4.790   8.630   5.541  0.4319 -0.6535  0.5615
18901THY    CM162998   4.815   8.771   5.493  0.1761  0.0751  0.3732
18901THY    HM162999   4.887   8.827   5.554  1.2098  0.8924 -1.7369
18901THY    HM263000   4.720   8.825   5.483 -1.0867  0.5255 -1.6953
18901THY    HM363001   4.864   8.763   5.395  2.3775  1.1132  0.3598
18901THY    CA663002   4.887   8.574   5.621  0.0997  0.1910  0.2114
18901THY    HA663003   4.976   8.634   5.642  0.6319 -0.8338 -0.1876
18902THY      O63004   3.517   5.352   7.761  0.3951  0.5326  0.6046
18902THY     HO63005   3.578   5.378   7.833  1.5700  0.1762 -1.0344
18902THY    CA163006   3.537   5.218   7.740  0.6062 -0.3506 -0.4881
18902THY    CA263007   3.531   5.169   7.610 -0.6928  0.5038 -0.0927
18902THY    CP163008   3.536   5.270   7.488 -0.0956 -0.0667 -0.2527
18902THY    HP163009   3.468   5.350   7.521  1.1664 -0.5424  1.0644
18902THY    CP263010   3.462   5.216   7.365  0.0310 -0.4824 -0.3775
18902THY    HP263011   3.377   5.149   7.384 -1.1526  1.1035  1.4563
18902THY    HP363012   3.533   5.167   7.298  0.4584  0.4486 -1.0680
18902THY    HP463013   3.416   5.301   7.313 -1.0885 -1.3679 -1.4856
18902THY    CP363014   3.672   5.337   7.450 -0.2322  0.1081  0.3005
18902THY    HP563015   3.727   5.275   7.378  1.5116  2.1150 -0.6216
18902THY    HP663016   3.738   5.352   7.536  0.7216 -0.9850  2.8567
18902THY    HP763017   3.658   5.430   7.394 -1.0123  0.1443  0.2109
18902THY    CA363018   3.551   5.028   7.584 -0.0357  0.2871 -0.7616
18902THY    HA363019   3.545   4.984   7.485  0.9718  0.6461 -1.7575
18902THY    CA463020   3.557   4.943   7.695 -0.3481  0.3156  0.0481
18902THY    HA463021   3.562   4.837   7.670 -1.2031 -0.0243  0.0803
18902THY    CA563022   3.556   4.996   7.827  0.1429  0.1998  0.2032
18902THY    CM163023   3.562   4.899   7.945  1.0179 -0.3460  0.0424
18902THY    HM163024   3.465   4.850   7.961 -0.3372 -0.0129  2.6111
18902THY    HM263025   3.576   4.951   8.040 -2.1391 -1.3875  3.2171
18902THY    HM363026   3.630   4.814   7.939  0.6594  1.4311 -0.4049
18902THY    CA663027   3.546   5.130   7.849 -0.4858  0.1338  0.1176
18902THY    HA663028   3.532   5.166   7.950 -0.8479  0.4503 -0.8781
18903THY      O63029   1.114   4.378   2.555 -0.0169  0.3023  0.5950
18903THY     HO63030   1.172   4.348   2.483 -1.2783 -0.1224 -0.9231
18903THY    CA163031   1.165   4.359   2.678 -0.2460  0.4402  0.1660
18903THY    CA263032   1.084   4.368   2.794 -0.5698 -0.8105  0.3362
18903THY    CP163033   0.936   4.388   2.782 -0.5697  0.3214  0.4372
18903THY    HP163034   0.896   4.317   2.708 -3.0233  0.4586  1.5812
18903THY    CP263035   0.906   4.526   2.738  0.4369  0.3613 -0.8516
18903THY    HP263036   0.908   4.592   2.825  0.6923 -0.3662  0.1196
18903THY    HP363037   0.805   4.507   2.698  0.9707 -0.9624 -1.0273
18903THY    HP463038   0.985   4.550   2.666  0.0262 -0.0810 -0.7966
18903THY    CP363039   0.861   4.358   2.909  0.4149  0.1620 -0.1892
18903THY    HP563040   0.876   4.417   3.000 -0.9083  1.1944 -1.3806
18903THY    HP663041   0.878   4.255   2.944  0.5816  5.4428  1.3153
18903THY    HP763042   0.754   4.362   2.887  0.4751  0.0610  1.3125
18903THY    CA363043   1.160   4.343   2.915 -0.0158  0.0579  0.3027
18903THY    HA363044   1.113   4.353   3.012  0.1800  0.1680  0.1348
18903THY    CA463045   1.301   4.310   2.917  0.5373 -0.5412  0.2044
18903THY    HA463046   1.353   4.300   3.011 -0.8607  0.0740 -1.9470
18903THY    CA563047   1.368   4.306   2.796  1.0049 -1.2041  0.8041
18903THY    CM163048   1.520   4.275   2.793 -0.5041  0.3551 -0.0537
18903THY    HM163049   1.582   4.319   2.872 -2.3338  2.3797 -0.9413
18903THY    HM263050   1.569   4.329   2.711  1.5680  0.5563 -1.5036
18903THY    HM363051   1.551   4.170   2.796  2.2721  3.7395  0.6735
18903THY    CA663052   1.299   4.324   2.676 -0.0458 -0.0457  0.3419
18903THY    HA663053   1.347   4.320   2.578 -0.4827 -0.3586  2.1741
18904THY      O63054   5.504   8.562   5.542  0.0052  0.7710  0.0321
18904THY     HO63055   5.487   8.476   5.583  0.0008  0.7218  0.0094
18904THY    CA163056   5.628   8.605   5.573  0.0549 -0.1998  0.1520
18904THY    CA263057   5.679   8.735   5.548  0.1410  0.1435 -0.9491
18904THY    CP163058   5.600   8.850   5.487  0.6654 -0.8063  0.4476
18904THY    HP163059   5.497   8.826   5.459 -0.3168  0.4901  2.8043
18904THY    CP263060   5.662   8.903   5.359  0.4579 -0.2534  0.5167
18904THY    HP263061   5.612   8.994   5.326 -0.7970  2.3817  0.8555
18904THY    HP363062   5.673   8.823   5.284 -0.0341 -0.3659  0.5510
18904THY    HP463063   5.769   8.927   5.362  1.2819 -0.6452 -2.6412
18904THY    CP363064   5.588   8.959   5.594 -0.3641 -0.4470  0.1054
18904THY    HP563065   5.525   9.043   5.561  0.7587 -0.0980  1.0996
18904THY    HP663066   5.686   9.004   5.609 -0.2630 -3.1265  0.9557
18904THY    HP763067   5.556   8.914   5.689  0.4300 -0.5296 -0.6557
18904THY    CA363068   5.808   8.765   5.589 -0.0549  0.6001  0.1103
18904THY    HA363069   5.853   8.860   5.562  1.9236  0.0718 -0.9130
18904THY    CA463070   5.891   8.664   5.646 -0.0485  0.3121 -0.0290
18904THY    HA463071   5.996   8.678   5.672 -0.4322  2.0214 -0.1401
18904THY    CA563072   5.842   8.532   5.659  0.4365 -0.4007 -0.2951
18904THY    CM163073   5.930   8.427   5.714  0.2503 -0.1162  0.2667
18904THY    HM163074   6.026   8.421   5.661 -1.0120 -2.6659  1.2592
18904THY    HM263075   5.881   8.329   5.708 -0.1245 -2.0457  0.5409
18904THY    HM363076   5.957   8.444   5.819 -0.1262  0.4565 -2.2794
18904THY    CA663077   5.713   8.502   5.623  0.2067  0.4002  0.0809
18904THY    HA663078   5.674   8.404   5.647  0.2651  1.4619  0.3031
18905THY      O63079   0.305   7.924   4.485 -0.0413  0.5129 -0.4804
18905THY     HO63080   0.320   8.013   4.521 -1.9169 -0.1664  0.1570
18905THY    CA163081   0.398   7.882   4.401 -0.6962  1.1127 -1.0570
18905THY    CA263082   0.375   7.784   4.304 -0.6026 -0.3323 -1.0268
18905THY    CP163083   0.229   7.743   4.265 -0.3691  0.6190  0.6143
18905THY    HP163084   0.168   7.742   4.356  0.4612  1.2904  3.1217
18905THY    CP263085   0.220   7.618   4.188 -0.4916  0.1021  1.0691
18905THY    HP263086   0.249   7.528   4.243 -0.2873 -0.3748  0.8385
18905THY    HP363087   0.280   7.618   4.096  0.1573  0.5116  1.6586
18905THY    HP463088   0.112   7.621   4.169 -0.6904  1.1688  0.8826
18905THY    CP363089   0.165   7.856   4.179 -0.0020 -0.0657 -0.0970
18905THY    HP563090   0.209   7.859   4.078  1.2844  0.4643 -0.1877
18905THY    HP663091   0.179   7.951   4.233  2.3555  0.5990 -0.7447
18905THY    HP763092   0.061   7.825   4.178  0.0060 -1.2404 -0.1071
18905THY    CA363093   0.490   7.740   4.232  0.0353 -0.3482 -0.2349
18905THY    HA363094   0.480   7.665   4.153  1.1524  2.0436 -3.0915
18905THY    CA463095   0.616   7.791   4.247 -0.4514  0.5738  0.3229
18905THY    HA463096   0.700   7.760   4.186 -0.1286  1.2346 -0.1104
18905THY    CA563097   0.634   7.886   4.347 -0.2660  0.3369  0.1475
18905THY    CM163098   0.775   7.930   4.376  0.5611  0.4467  0.4367
18905THY    HM163099   0.833   7.852   4.427  1.6526 -1.0938  0.2089
18905THY    HM263100   0.789   8.019   4.438  1.6289 -0.9773  1.3026
18905THY    HM363101   0.813   7.953   4.276 -0.3274 -0.5048 -1.8678
18905THY    CA663102   0.530   7.926   4.424  0.0129  0.0885 -0.0313
18905THY    HA663103   0.549   8.002   4.499  1.0363  1.4169 -1.5300
18906THY      O63104   2.159   8.085   5.716 -0.3718  0.3884  0.4028
18906THY     HO63105   2.222   8.011   5.720 -0.3802 -1.1319  0.2889
18906THY    CA163106   2.214   8.179   5.634 -0.3603 -0.2665 -0.0497
18906THY    CA263107   2.223   8.318   5.661 -0.4269  0.4097 -0.1911
18906THY    CP163108   2.177   8.353   5.798  0.4012  0.2319  0.0422
18906THY    HP163109   2.114   8.272   5.836  1.1318 -0.1403 -0.7062
18906THY    CP263110   2.082   8.474   5.803 -0.1879  0.5030 -0.3968
18906THY    HP263111   1.996   8.450   5.740 -1.0820  1.7278 -0.5191
18906THY    HP363112   2.117   8.570   5.764  0.9541  3.2556  0.3991
18906THY    HP463113   2.048   8.492   5.906  1.1920  1.0788 -0.9728
18906THY    CP363114   2.294   8.370   5.893 -0.5227  0.0280  0.0971
18906THY    HP563115   2.359   8.282   5.885  0.0037  3.1834  0.1062
18906THY    HP663116   2.264   8.359   5.998  2.8234  1.1582  0.7377
18906THY    HP763117   2.358   8.457   5.880  2.3892  3.3461 -1.3053
18906THY    CA363118   2.297   8.401   5.577 -0.3240 -0.0074 -0.4266
18906THY    HA363119   2.314   8.508   5.591 -0.0702 -0.3806 -0.4162
18906THY    CA463120   2.350   8.355   5.457  0.3206  0.5765 -0.3187
18906THY    HA463121   2.395   8.421   5.384  1.0594 -0.2804 -1.7101
18906THY    CA563122   2.331   8.220   5.425 -0.2821  0.7473  0.0090
18906THY    CM163123   2.377   8.173   5.277  0.0076 -0.2090 -1.0096
18906THY    HM163124   2.357   8.234   5.188 -0.3544  0.1918 -0.5294
18906THY    HM263125   2.345   8.069   5.264 -0.9777  3.1699 -1.2792
18906THY    HM363126   2.486   8.168   5.289  0.0362  0.6237  0.6382
18906THY    CA663127   2.274   8.133   5.520 -0.1472  0.0881  0.1666
18906THY    HA663128   2.247   8.031   5.492 -1.6203  0.6213  0.3895
18907THY      O63129   8.345   6.741   7.260  0.0523  0.1032  0.5207
18907THY     HO63130   8.409   6.812   7.281 -0.4710 -0.3861  1.1510
18907THY    CA163131   8.396   6.649   7.171 -1.0591  0.0082 -0.9638
18907THY    CA263132   8.310   6.564   7.097  0.1525 -0.5790 -0.3985
18907THY    CP163133   8.157   6.566   7.128 -0.4751  0.3341  0.2014
18907THY    HP163134   8.135   6.656   7.187  1.4136 -0.5320  1.2993
18907THY    CP263135   8.105   6.443   7.209 -0.1671  1.0149 -0.3805
18907THY    HP263136   8.145   6.354   7.160 -0.8990  0.0545 -0.1934
18907THY    HP363137   7.996   6.443   7.208 -0.2153 -1.6014  0.4265
18907THY    HP463138   8.123   6.444   7.317  0.6662  0.8843  0.3018
18907THY    CP363139   8.084   6.587   6.994  0.3476 -0.1691 -0.0673
18907THY    HP563140   7.978   6.559   7.004  0.3254 -0.9643 -0.2954
18907THY    HP663141   8.113   6.527   6.907 -0.1447 -1.1652  1.0861
18907THY    HP763142   8.067   6.693   6.968 -2.8845  1.9177  0.0912
18907THY    CA363143   8.368   6.475   7.015 -0.3574  0.5678  0.3141
18907THY    HA363144   8.309   6.411   6.950 -0.2230  1.0471 -0.3014
18907THY    CA463145   8.512   6.466   7.007  0.2197  0.1867 -0.4432
18907THY    HA463146   8.563   6.394   6.944 -1.8872 -0.2134 -1.6488
18907THY    CA563147   8.591   6.548   7.087 -0.6482 -0.1477  0.5251
18907THY    CM163148   8.747   6.545   7.066 -0.0658  0.8119 -0.3267
18907THY    HM163149   8.800   6.625   7.120  0.1506 -2.5479  2.0039
18907THY    HM263150   8.765   6.568   6.961 -0.6116  0.8963  0.5419
18907THY    HM363151   8.797   6.451   7.092  3.1145 -1.1508  0.6778
18907THY    CA663152   8.538   6.649   7.161  0.1734 -0.0323 -0.0021
18907THY    HA663153   8.607   6.712   7.216 -0.1254 -0.4640  0.7164
18908THY      O63154   4.640   3.216   5.601 -0.7247  0.1864 -0.4551
18908THY     HO63155   4.554   3.261   5.592 -0.7618 -1.1488 -0.7514
18908THY    CA163156   4.614   3.088   5.607  0.9927  0.0263  0.4268
18908THY    CA263157   4.714   2.988   5.613  0.7039  0.1178  0.1790
18908THY    CP163158   4.851   3.034   5.651 -0.2035 -0.5277  0.2003
18908THY    HP163159   4.864   3.136   5.615 -0.8813  0.3179  0.5996
18908THY    CP263160   4.967   2.942   5.603 -0.5674  1.0089  0.0232
18908THY    HP263161   4.983   2.974   5.499  1.8988  1.6039  0.9472
18908THY    HP363162   4.938   2.838   5.619 -0.1892 -1.7117 -0.5920
18908THY    HP463163   5.059   2.953   5.662 -1.2263  2.3282 -1.2708
18908THY    CP363164   4.856   3.050   5.804 -0.5071  0.1821  0.5347
18908THY    HP563165   4.767   3.105   5.835 -1.7178 -1.6230 -0.2853
18908THY    HP663166   4.944   3.097   5.850 -2.3593  0.8796  3.5967
18908THY    HP763167   4.868   2.950   5.847  3.4729 -1.5445  0.0477
18908THY    CA363168   4.673   2.852   5.598 -0.3591  0.3762  0.9221
18908THY    HA363169   4.743   2.770   5.611 -0.4060  3.2285  1.2602
18908THY    CA463170   4.535   2.830   5.570  0.1441  0.0514  0.1512
18908THY    HA463171   4.491   2.731   5.566 -1.0529  0.3379  0.6577
18908THY    CA563172   4.454   2.940   5.547 -0.2985 -0.5450 -0.4421
18908THY    CM163173   4.307   2.912   5.520 -0.4671  0.2876 -0.4556
18908THY    HM163174   4.253   3.002   5.490 -0.0092  0.1758 -0.2152
18908THY    HM263175   4.257   2.860   5.603  0.0548 -0.7835 -2.8314
18908THY    HM363176   4.306   2.848   5.431  1.4838 -0.2337  0.1851
18908THY    CA663177   4.487   3.064   5.574 -1.0717  0.3437 -0.7467
18908THY    HA663178   4.407   3.136   5.560 -1.5621  2.7632 -0.7231
18909THY      O63179   1.055   3.413   2.773 -0.3556 -0.3131 -0.1957
18909THY     HO63180   1.130   3.352   2.781  0.3215  0.4569  0.7006
18909THY    CA163181   0.940   3.346   2.749 -0.0198  0.4912  0.1294
18909THY    CA263182   0.836   3.389   2.658 -0.4096 -0.2264  0.0536
18909THY    CP163183   0.853   3.521   2.583 -0.5972 -0.6857  0.6356
18909THY    HP163184   0.959   3.548   2.592 -0.6709 -1.1761  1.1130
18909THY    CP263185   0.776   3.631   2.652  0.2115 -0.1133 -0.3221
18909THY    HP263186   0.670   3.603   2.654 -0.4684  2.9266  1.9226
18909THY    HP363187   0.791   3.727   2.603  0.1681  0.8943  0.2134
18909THY    HP463188   0.807   3.642   2.757  0.6304 -0.3245  0.5893
18909THY    CP363189   0.811   3.519   2.439  0.0936 -0.0323  0.4175
18909THY    HP563190   0.706   3.485   2.434  0.2718  0.6586 -0.2624
18909THY    HP663191   0.861   3.436   2.388  0.6484  2.6208 -0.9677
18909THY    HP763192   0.830   3.615   2.390  1.1818  0.9773  0.7387
18909THY    CA363193   0.718   3.313   2.652  0.3892 -0.2057  0.9716
18909THY    HA363194   0.628   3.333   2.595  1.0512 -1.2611  0.9958
18909THY    CA463195   0.717   3.196   2.727 -0.7985 -0.2523  0.1908
18909THY    HA463196   0.629   3.134   2.714 -0.0280  0.3163 -1.0428
18909THY    CA563197   0.812   3.156   2.820 -0.1709 -0.3298 -0.3641
18909THY    CM163198   0.791   3.028   2.905  0.1102  0.8249  0.0962
18909THY    HM163199   0.892   2.993   2.929  0.4265 -1.2022 -0.5271
18909THY    HM263200   0.737   2.950   2.850 -0.5733  2.2823 -0.4934
18909THY    HM363201   0.730   3.057   2.991 -1.9719 -0.3841 -0.4842
18909THY    CA663202   0.926   3.235   2.834  0.8684  0.5267  0.0898
18909THY    HA663203   1.007   3.204   2.898  1.2903 -0.7976 -1.7169
18910THY      O63204   7.270   8.536   2.867 -0.0772  0.3844 -0.2056
18910THY     HO63205   7.308   8.538   2.777 -1.9329 -0.4497 -0.0828
18910THY    CA163206   7.238   8.666   2.891  0.7361 -0.1327 -0.0022
18910THY    CA263207   7.154   8.742   2.804 -0.2332 -0.2953 -0.1779
18910THY    CP163208   7.087   8.676   2.675 -0.3798 -0.2543  0.3073
18910THY    HP163209   7.124   8.573   2.667  0.3941  0.8597  0.4854
18910THY    CP263210   7.116   8.745   2.548 -0.3751 -0.0131  0.0658
18910THY    HP263211   7.070   8.844   2.554 -0.0816  1.4185  0.1257
18910THY    HP363212   7.087   8.693   2.455 -0.9757  1.1956 -1.8771
18910THY    HP463213   7.221   8.775   2.539 -0.7760  0.3964  1.6389
18910THY    CP363214   6.935   8.673   2.698 -0.4669  0.0533  0.1040
18910THY    HP563215   6.906   8.590   2.633  2.5767 -1.1579 -0.1240
18910THY    HP663216   6.891   8.765   2.658 -1.2806 -0.5200 -0.5184
18910THY    HP763217   6.898   8.656   2.800 -0.7089 -0.1046 -0.3274
18910THY    CA363218   7.133   8.875   2.834 -0.7717 -0.2238 -0.3760
18910THY    HA363219   7.058   8.932   2.779 -0.7916  0.9367  0.7548
18910THY    CA463220   7.187   8.941   2.944  0.0363 -0.2811  0.8729
18910THY    HA463221   7.162   9.046   2.957  0.6294  0.4421  0.9283
18910THY    CA563222   7.274   8.863   3.024 -0.4728 -0.0859 -0.2220
18910THY    CM163223   7.341   8.929   3.136 -0.2392  0.7071  0.5630
18910THY    HM163224   7.417   8.859   3.172 -1.1251  1.3800 -0.0823
18910THY    HM263225   7.264   8.932   3.214 -0.0494  0.9199 -0.0071
18910THY    HM363226   7.372   9.031   3.110 -0.3603 -0.5166  0.3070
18910THY    CA663227   7.306   8.725   2.998  0.0070  0.1264  0.6103
18910THY    HA663228   7.384   8.671   3.050  1.4600  0.1288  2.6036
18911THY      O63229   8.625   2.279   2.786 -0.4705  0.4220  0.4084
18911THY     HO63230   8.548   2.320   2.827 -1.5652 -0.9935 -0.1655
18911THY    CA163231   8.694   2.378   2.723 -0.4350 -1.0398  0.0887
18911THY    CA263232   8.836   2.376   2.712  0.1681 -0.3507  0.2636
18911THY    CP163233   8.915   2.248   2.731  0.2964  0.2770  0.7759
18911THY    HP163234   8.845   2.170   2.764 -2.5460 -1.9529  2.1894
18911THY    CP263235   9.002   2.269   2.857  0.2222  0.3248  0.1646
18911THY    HP263236   9.034   2.172   2.896  1.4305 -3.7112 -1.2806
18911THY    HP363237   8.954   2.333   2.932 -0.5238  1.0525 -1.2160
18911THY    HP463238   9.088   2.327   2.822  1.2794  1.8933 -0.4162
18911THY    CP363239   8.991   2.202   2.605 -0.5023 -0.3791  0.4120
18911THY    HP563240   8.920   2.209   2.522 -0.8173 -0.0237  1.9642
18911THY    HP663241   9.018   2.100   2.635 -0.3015  1.8133  1.0494
18911THY    HP763242   9.079   2.266   2.591 -1.5679 -1.4077  1.7152
18911THY    CA363243   8.900   2.495   2.671 -0.1539 -0.4248 -0.1537
18911THY    HA363244   9.008   2.499   2.665 -0.1139  0.4532  0.1492
18911THY    CA463245   8.824   2.615   2.648  0.5682 -0.1795  0.1900
18911THY    HA463246   8.865   2.713   2.625 -0.8821 -0.9408  0.6547
18911THY    CA563247   8.681   2.600   2.651  0.3134 -1.0685 -0.3634
18911THY    CM163248   8.583   2.703   2.599 -0.4961 -0.4038 -0.2613
18911THY    HM163249   8.571   2.676   2.493 -1.7346 -0.0715 -1.0765
18911THY    HM263250   8.625   2.804   2.614 -0.5222  2.3880 -0.5825
18911THY    HM363251   8.487   2.708   2.651 -1.4230 -2.1782  1.4686
18911THY    CA663252   8.618   2.486   2.703 -0.1402  0.3744 -0.7583
18911THY    HA663253   8.511   2.471   2.704 -0.1204  1.7035 -0.8954
18912THY      O63254   5.759   4.438   4.076  0.3763  0.1870 -0.1160
18912THY     HO63255   5.844   4.444   4.030  0.1510 -0.5716 -2.0315
18912THY    CA163256   5.779   4.508   4.189  0.4095  0.5333  0.4947
18912THY    CA263257   5.679   4.511   4.292 -0.2760  0.0488 -1.0075
18912THY    CP163258   5.549   4.441   4.274 -0.7134 -0.6943  0.3614
18912THY    HP163259   5.552   4.372   4.189  1.4417 -1.0863  0.8901
18912THY    CP263260   5.430   4.530   4.245  0.9054  0.9100 -0.6822
18912THY    HP263261   5.340   4.486   4.201  0.0937  1.4632  0.3950
18912THY    HP363262   5.449   4.601   4.163  2.8974  1.1579 -0.8610
18912THY    HP463263   5.388   4.582   4.331  2.1488  0.4947  1.1226
18912THY    CP363264   5.518   4.349   4.392  0.0919 -0.4786 -0.1427
18912THY    HP563265   5.449   4.270   4.361  1.8519 -1.7980 -1.2463
18912THY    HP663266   5.481   4.409   4.475 -0.1555 -2.2803  2.3870
18912THY    HP763267   5.613   4.299   4.415  1.5266 -0.9412  2.2174
18912THY    CA363268   5.716   4.564   4.418 -0.9742 -0.2340  0.0785
18912THY    HA363269   5.648   4.561   4.503 -2.0492 -1.0339  0.9006
18912THY    CA463270   5.842   4.625   4.436  0.6698  0.3602  0.1307
18912THY    HA463271   5.869   4.663   4.534  1.1107  0.7077 -1.0423
18912THY    CA563272   5.932   4.621   4.334  0.4705 -0.1811  0.0101
18912THY    CM163273   6.071   4.674   4.370  0.7344  0.4417  1.0262
18912THY    HM163274   6.148   4.630   4.305  0.2864 -0.2759  1.2861
18912THY    HM263275   6.085   4.639   4.473 -2.7721  0.4887 -0.5669
18912THY    HM363276   6.080   4.783   4.371 -0.2092  4.0381  1.1918
18912THY    CA663277   5.905   4.559   4.213  0.0336 -0.4064 -0.2974
18912THY    HA663278   5.993   4.533   4.155 -0.4971 -0.8653 -1.1157
18913THY      O63279   4.254   4.909   6.225  0.5182 -0.0610  0.0721
18913THY     HO63280   4.255   4.824   6.272 -1.5812 -1.2268 -0.6548
18913THY    CA163281   4.367   4.907   6.158 -0.5723  0.3613  0.1987
18913THY    CA263282   4.434   5.026   6.110 -0.3017 -1.2230  0.3299
18913THY    CP163283   4.374   5.169   6.121 -0.0415 -0.3223 -0.6104
18913THY    HP163284   4.279   5.174   6.176 -0.1058 -0.5392  1.2370
18913THY    CP263285   4.345   5.232   5.984  0.1412 -0.7841 -0.6155
18913THY    HP263286   4.438   5.239   5.926  0.5362 -0.4044 -2.2190
18913THY    HP363287   4.304   5.332   6.001  0.0679  1.6706 -1.0052
18913THY    HP463288   4.268   5.181   5.925  0.4476 -0.8171 -1.0479
18913THY    CP363289   4.469   5.262   6.198  0.5998  0.1480  0.1194
18913THY    HP563290   4.556   5.286   6.136 -1.6804 -2.8830  1.1044
18913THY    HP663291   4.508   5.214   6.289  0.7515 -1.6982 -3.6703
18913THY    HP763292   4.412   5.355   6.209  0.2446 -2.5254  0.2749
18913THY    CA363293   4.561   5.004   6.043  0.1490 -0.0162  0.2654
18913THY    HA363294   4.614   5.088   6.001  0.7423 -1.0606 -0.6123
18913THY    CA463295   4.608   4.876   6.027 -0.2631 -0.4844 -0.0713
18913THY    HA463296   4.696   4.871   5.964  0.7796  0.8152  1.1890
18913THY    CA563297   4.537   4.760   6.079  0.2295 -0.4987 -0.6528
18913THY    CM163298   4.597   4.623   6.090  0.1983 -1.1052  0.5664
18913THY    HM163299   4.638   4.610   6.190  0.3749 -1.2713 -0.2202
18913THY    HM263300   4.689   4.609   6.032  0.7858  0.3407 -2.5289
18913THY    HM363301   4.526   4.541   6.070  1.3154  2.8098 -1.6330
18913THY    CA663302   4.422   4.783   6.152 -0.1265  0.3720  0.4732
18913THY    HA663303   4.375   4.694   6.192 -0.9192  1.3065  1.2981
18914THY      O63304   0.824   4.969   4.013 -0.0607 -0.2894 -0.6572
18914THY     HO63305   0.833   4.890   3.957  0.7686  2.0998 -2.3665
18914THY    CA163306   0.820   5.069   3.920 -0.5552  0.1539 -0.3219
18914THY    CA263307   0.756   5.191   3.947 -0.9922 -0.4053  0.5909
18914THY    CP163308   0.709   5.216   4.090 -0.0391  1.1632 -0.0110
18914THY    HP163309   0.720   5.125   4.150  2.6802  0.7276 -0.0504
18914THY    CP263310   0.566   5.279   4.097 -0.4841  1.1257 -0.5138
18914THY    HP263311   0.541   5.283   4.204 -1.7968  0.8284 -0.5712
18914THY    HP363312   0.492   5.226   4.037  1.6529 -1.5426 -0.7174
18914THY    HP463313   0.565   5.383   4.061  0.7273  0.2085 -0.7963
18914THY    CP363314   0.808   5.311   4.156  0.0608 -0.7770  0.0746
18914THY    HP563315   0.909   5.298   4.114  0.6367  1.2706 -3.4984
18914THY    HP663316   0.807   5.292   4.264 -1.6183 -0.6999  0.4974
18914THY    HP763317   0.776   5.415   4.147  1.1250 -2.0624  0.3123
18914THY    CA363318   0.737   5.281   3.841  0.7174  0.2001 -0.9099
18914THY    HA363319   0.686   5.377   3.852 -0.8277  0.1847 -1.7057
18914THY    CA463320   0.770   5.247   3.713 -0.1782  0.3970  0.0209
18914THY    HA463321   0.751   5.314   3.629  0.7327  1.3247  1.5052
18914THY    CA563322   0.845   5.134   3.692  0.3573 -0.3665  0.8710
18914THY    CM163323   0.887   5.104   3.557 -0.7214  0.3387 -0.5535
18914THY    HM163324   0.805   5.115   3.485 -0.7014  0.2535 -0.9815
18914THY    HM263325   0.915   4.999   3.560  1.9412  1.7616  0.1095
18914THY    HM363326   0.972   5.169   3.532 -0.9164  2.6013  0.6923
18914THY    CA663327   0.864   5.042   3.791 -0.6196  0.7058 -0.2877
18914THY    HA663328   0.902   4.945   3.762 -1.2992 -0.6064 -0.1927
18915THY      O63329   6.227   0.568   5.361 -0.1108 -0.3503  0.1874
18915THY     HO63330   6.231   0.637   5.292 -2.7626 -0.5936  0.2315
18915THY    CA163331   6.131   0.597   5.457 -0.2821  0.6023  0.6152
18915THY    CA263332   6.165   0.587   5.592 -0.2497 -0.2438 -0.2071
18915THY    CP163333   6.282   0.502   5.630  0.2631 -0.4256  0.2698
18915THY    HP163334   6.326   0.460   5.538  0.4682  0.3223 -1.2370
18915THY    CP263335   6.247   0.390   5.729 -0.1206 -0.0287  0.2350
18915THY    HP263336   6.153   0.339   5.707  0.5391 -1.5035 -0.3939
18915THY    HP363337   6.252   0.424   5.833 -0.9111  0.3297 -0.6890
18915THY    HP463338   6.327   0.315   5.724  0.2813  1.4819  0.5235
18915THY    CP363339   6.393   0.592   5.696 -0.8403  0.1497  0.1150
18915THY    HP563340   6.373   0.633   5.795  2.6531  1.1936 -0.3483
18915THY    HP663341   6.412   0.678   5.631  1.8646 -1.1272 -1.2881
18915THY    HP763342   6.486   0.535   5.685  0.4020  0.2139  2.0136
18915THY    CA363343   6.065   0.623   5.688 -0.6740  0.1264 -0.2955
18915THY    HA363344   6.077   0.615   5.795 -0.7969  0.1531 -0.1335
18915THY    CA463345   5.947   0.686   5.646  0.3314 -0.4173  0.1966
18915THY    HA463346   5.871   0.720   5.717  0.6760 -0.1265  0.3652
18915THY    CA563347   5.926   0.699   5.508  0.1011  0.1239 -0.9081
18915THY    CM163348   5.799   0.765   5.455 -0.1470  0.2999  0.8220
18915THY    HM163349   5.712   0.746   5.519 -0.7521 -0.2372  1.7070
18915THY    HM263350   5.786   0.709   5.362 -0.9373  0.8439  0.0777
18915THY    HM363351   5.803   0.875   5.448  0.9619 -2.1915  0.6661
18915THY    CA663352   6.018   0.649   5.411 -0.1597  0.2701 -0.5178
18915THY    HA663353   6.008   0.668   5.305  2.5110 -0.1131 -0.9488
18916THY      O63354   6.401   2.983   6.863 -0.1918 -0.0563 -0.0881
18916THY     HO63355   6.376   3.053   6.927 -1.8533  0.7068 -1.2956
18916THY    CA163356   6.293   2.902   6.862  0.0117 -0.2128  0.0930
18916THY    CA263357   6.261   2.825   6.750  0.1757  0.0786  0.3036
18916THY    CP163358   6.349   2.804   6.625  0.6613  0.7629 -0.2329
18916THY    HP163359   6.430   2.876   6.638  0.1868 -3.1531  1.2678
18916THY    CP263360   6.284   2.840   6.489  0.5182 -0.0613 -0.1505
18916THY    HP263361   6.175   2.848   6.491  0.2378  0.9016 -3.0346
18916THY    HP363362   6.297   2.762   6.413  2.4029  1.2005 -1.1486
18916THY    HP463363   6.331   2.928   6.444  1.7253  1.2358 -0.0953
18916THY    CP363364   6.416   2.669   6.609  0.4296  0.3116 -0.1846
18916THY    HP563365   6.354   2.606   6.544 -0.2846  1.6645 -0.9231
18916THY    HP663366   6.410   2.620   6.707  1.8821  0.5708  0.1112
18916THY    HP763367   6.516   2.676   6.566  0.9761  1.2827 -1.5396
18916THY    CA363368   6.151   2.733   6.753  0.8136 -0.5209  0.1929
18916THY    HA363369   6.132   2.656   6.679  0.5792 -0.4788  0.2083
18916THY    CA463370   6.079   2.729   6.876  1.1669 -0.1782  0.0403
18916THY    HA463371   5.999   2.657   6.892 -0.3820  2.0045  2.0672
18916THY    CA563372   6.098   2.826   6.980 -0.3117  0.8583 -0.5458
18916THY    CM163373   6.010   2.832   7.103  0.5023  0.0188 -0.0907
18916THY    HM163374   5.916   2.779   7.086  1.2265 -2.0118 -0.8224
18916THY    HM263375   5.991   2.939   7.122 -0.2819 -2.0187  0.1785
18916THY    HM363376   6.065   2.794   7.190  0.5296  0.5294  1.0754
18916THY    CA663377   6.216   2.904   6.972 -0.7091 -0.6280  0.4720
18916THY    HA663378   6.245   2.958   7.062 -0.3662  0.6148 -1.6844
18917THY      O63379   9.298   2.034   5.936  0.4432 -0.0037  0.3978
18917THY     HO63380   9.321   1.988   6.019  0.7376 -0.0913  0.3824
18917THY    CA163381   9.323   2.165   5.948 -0.2882  0.9264 -0.0988
18917THY    CA263382   9.338   2.251   5.833  0.4893  0.2603 -0.1007
18917THY    CP163383   9.338   2.195   5.688 -0.2587 -0.2082  0.7443
18917THY    HP163384   9.263   2.115   5.680  0.7877  1.1845 -0.4457
18917THY    CP263385   9.480   2.151   5.643 -0.4077  0.6356  0.8343
18917THY    HP263386   9.546   2.239   5.648  1.5580 -0.4115 -0.5005
18917THY    HP363387   9.472   2.109   5.542  0.8141  1.1518 -0.7603
18917THY    HP463388   9.510   2.071   5.711  0.2664 -0.7557 -0.1427
18917THY    CP363389   9.287   2.298   5.588  0.5112  0.3104  0.1003
18917THY    HP563390   9.261   2.246   5.496 -2.4861  0.9609  0.2468
18917THY    HP663391   9.359   2.377   5.562 -0.2863 -2.4990 -0.0223
18917THY    HP763392   9.201   2.351   5.630 -1.0001 -1.7185 -0.6397
18917THY    CA363393   9.343   2.388   5.855  1.1513  0.3463 -0.3300
18917THY    HA363394   9.339   2.457   5.771 -1.7873  0.1998 -0.5352
18917THY    CA463395   9.341   2.442   5.990  0.0884  0.9287  0.8885
18917THY    HA463396   9.349   2.548   6.012 -3.2109 -0.3757  1.5253
18917THY    CA563397   9.333   2.353   6.100 -0.4468  0.4015  0.9649
18917THY    CM163398   9.343   2.407   6.238 -0.1285  0.3652 -0.5865
18917THY    HM163399   9.429   2.368   6.295  0.1553 -0.4945 -1.2369
18917THY    HM263400   9.251   2.407   6.298 -0.2201  0.2251 -0.4257
18917THY    HM363401   9.377   2.511   6.223  0.7933 -1.3038 -1.0975
18917THY    CA663402   9.319   2.213   6.075 -0.1961  0.4479  0.8584
18917THY    HA663403   9.325   2.150   6.164  0.8772  0.7112  1.3153
18918THY      O63404   3.682   7.774   5.697  0.1052 -0.4119 -0.0444
18918THY     HO63405   3.594   7.735   5.685 -0.0820 -3.3364  1.0571
18918THY    CA163406   3.747   7.728   5.582 -0.4164 -0.1411 -0.1765
18918THY    CA263407   3.779   7.814   5.476 -0.6765 -0.0508 -1.5166
18918THY    CP163408   3.758   7.971   5.494 -0.1649  0.1626  0.1042
18918THY    HP163409   3.714   7.998   5.591  1.7603  1.2725 -0.5202
18918THY    CP263410   3.658   8.025   5.389 -0.0574  0.0739  0.3920
18918THY    HP263411   3.552   8.013   5.414  0.0198 -0.2588 -1.1302
18918THY    HP363412   3.674   7.961   5.302 -0.2014  0.1447  0.2574
18918THY    HP463413   3.691   8.121   5.348  0.2870 -1.1771 -0.2432
18918THY    CP363414   3.890   8.048   5.487  0.7430  0.8484 -0.6063
18918THY    HP563415   3.968   8.005   5.552  0.5028  1.0892 -0.6794
18918THY    HP663416   3.871   8.153   5.509 -0.7353 -1.2312 -0.3729
18918THY    HP763417   3.927   8.051   5.384  0.5313  0.8032  1.0127
18918THY    CA363418   3.858   7.756   5.371 -0.3220 -0.1189 -0.4025
18918THY    HA363419   3.906   7.815   5.294 -0.4393  0.1798  0.0903
18918THY    CA463420   3.886   7.620   5.376 -0.3111 -0.1434 -0.1596
18918THY    HA463421   3.947   7.581   5.295 -0.2312 -0.2088  0.0968
18918THY    CA563422   3.839   7.532   5.472 -0.1505 -0.3256  0.1750
18918THY    CM163423   3.875   7.395   5.481 -0.2963 -0.5637  0.5085
18918THY    HM163424   3.829   7.339   5.399 -0.7284 -1.5565  2.2560
18918THY    HM263425   3.838   7.348   5.572 -1.2592 -0.8748  0.6429
18918THY    HM363426   3.982   7.371   5.484 -0.8548 -1.1799 -2.3926
18918THY    CA663427   3.777   7.590   5.585 -0.1009  0.4777 -1.0509
18918THY    HA663428   3.753   7.533   5.674 -1.9914 -0.4855 -1.8478
18919THY      O63429   7.847   4.678   2.758 -0.0378  0.3010 -0.1037
18919THY     HO63430   7.918   4.723   2.806  1.1882  0.2423 -1.9008
18919THY    CA163431   7.744   4.684   2.844  0.2634 -0.0817  0.0112
18919THY    CA263432   7.650   4.582   2.852  0.0351 -0.0995 -0.0876
18919THY    CP163433   7.670   4.449   2.777 -1.3851 -0.1406 -0.6587
18919THY    HP163434   7.757   4.454   2.711 -1.4586 -0.1802  0.1078
18919THY    CP263435   7.551   4.411   2.692 -0.4124  0.1004 -0.5500
18919THY    HP263436   7.562   4.305   2.666 -0.0014  0.4181 -0.5900
18919THY    HP363437   7.538   4.470   2.601  1.7700 -1.2976 -2.0975
18919THY    HP463438   7.460   4.419   2.752 -0.3024  0.6397 -2.7276
18919THY    CP363439   7.717   4.339   2.883  0.0004 -0.0506  0.1806
18919THY    HP563440   7.823   4.362   2.903  0.1596 -0.1016 -0.4713
18919THY    HP663441   7.717   4.240   2.835  0.9768 -0.3987  0.3335
18919THY    HP763442   7.649   4.342   2.969  1.4797  1.1365  1.4980
18919THY    CA363443   7.541   4.597   2.943  0.6446  0.5171  0.2513
18919THY    HA363444   7.482   4.515   2.983 -1.6768  0.1660  1.6532
18919THY    CA463445   7.543   4.704   3.036 -0.4545  0.2153 -1.1304
18919THY    HA463446   7.465   4.726   3.109 -0.1817 -0.2737  1.8945
18919THY    CA563447   7.624   4.808   3.019  0.3262  0.3715 -0.6915
18919THY    CM163448   7.599   4.929   3.114 -0.2346  0.0936  0.5269
18919THY    HM163449   7.523   4.995   3.070  1.5479  0.8225  3.2267
18919THY    HM263450   7.687   4.995   3.115 -0.3461 -0.6066  0.6935
18919THY    HM363451   7.577   4.892   3.215  1.2870  0.2999  0.1270
18919THY    CA663452   7.728   4.801   2.923  0.4221 -0.2236 -0.2511
18919THY    HA663453   7.794   4.888   2.917 -0.1418 -1.9724  0.1009
18920THY      O63454   7.076   3.891   5.726  0.6666  0.4617 -0.5845
18920THY     HO63455   7.153   3.911   5.782  1.0371  0.2634 -1.4201
18920THY    CA163456   6.962   3.854   5.795  0.8359 -0.2186 -0.4996
18920THY    CA263457   6.862   3.777   5.741  0.2141  0.4274  0.4441
18920THY    CP163458   6.886   3.733   5.596  0.4266  0.4341 -0.2550
18920THY    HP163459   6.993   3.731   5.574  0.5156  0.8477 -0.1179
18920THY    CP263460   6.818   3.818   5.493 -0.0182  0.0352  0.1195
18920THY    HP263461   6.890   3.836   5.412 -0.7026 -0.7551 -0.6327
18920THY    HP363462   6.812   3.921   5.529 -1.2629 -0.3446  0.1840
18920THY    HP463463   6.724   3.778   5.455 -0.2630  0.2764  0.4613
18920THY    CP363464   6.847   3.580   5.572 -0.3603  0.1396 -0.1601
18920THY    HP563465   6.927   3.530   5.627 -0.5977 -0.9569 -1.8376
18920THY    HP663466   6.852   3.558   5.465  0.0708 -0.0629  0.8635
18920THY    HP763467   6.746   3.554   5.608  0.1125  1.0743 -0.7582
18920THY    CA363468   6.759   3.728   5.820 -0.3552 -0.2918 -0.3005
18920THY    HA363469   6.679   3.665   5.782 -1.0103  2.8284 -1.5135
18920THY    CA463470   6.750   3.759   5.958  0.2045  0.3400 -0.8151
18920THY    HA463471   6.671   3.718   6.020  0.1611  1.2741  0.5967
18920THY    CA563472   6.854   3.837   6.012  0.6862 -0.3320  0.6767
18920THY    CM163473   6.844   3.875   6.156  0.6024  0.8088 -0.1223
18920THY    HM163474   6.777   3.826   6.228  0.7411  1.0776  0.0817
18920THY    HM263475   6.830   3.983   6.160  0.6808 -1.0973 -0.0002
18920THY    HM363476   6.941   3.845   6.198 -0.5785  2.6509 -1.6063
18920THY    CA663477   6.950   3.885   5.929  0.3387 -0.4357  0.4305
18920THY    HA663478   7.026   3.938   5.985  0.3121 -1.0447  1.1352
18921THY      O63479   4.258   1.212   3.628 -0.7268 -0.6024  0.0361
18921THY     HO63480   4.318   1.154   3.679  2.2817 -1.5588  2.0948
18921THY    CA163481   4.241   1.323   3.699  0.5669 -0.3668 -0.7961
18921THY    CA263482   4.119   1.354   3.765 -0.2900  0.3305  0.2373
18921THY    CP163483   4.015   1.239   3.782 -0.7013  0.1938 -0.1067
18921THY    HP163484   4.041   1.149   3.726 -0.2711  1.4809 -0.8111
18921THY    CP263485   3.870   1.290   3.743 -0.1241 -0.2406 -0.0230
18921THY    HP263486   3.838   1.387   3.784  0.5399 -0.7472  0.4195
18921THY    HP363487   3.800   1.223   3.793  0.5492  1.0188  0.1720
18921THY    HP463488   3.864   1.281   3.634 -0.8753 -0.0965 -1.4282
18921THY    CP363489   4.026   1.191   3.929 -0.3486 -0.8947  0.1187
18921THY    HP563490   3.935   1.134   3.953  0.7763  0.6735 -1.1151
18921THY    HP663491   4.036   1.281   3.990  1.4512 -0.0204 -0.6206
18921THY    HP763492   4.118   1.132   3.940  0.8007 -2.7589  1.4549
18921THY    CA363493   4.097   1.478   3.831 -0.3007  0.5417 -0.2515
18921THY    HA363494   4.008   1.497   3.890 -0.5304  0.5322 -1.2413
18921THY    CA463495   4.197   1.576   3.818 -0.1249  1.0433  0.2617
18921THY    HA463496   4.184   1.676   3.859  0.0366  3.3301 -0.6063
18921THY    CA563497   4.320   1.546   3.756  0.1280  0.3961  0.1285
18921THY    CM163498   4.436   1.649   3.752 -0.3638  0.8969 -0.5222
18921THY    HM163499   4.447   1.709   3.843  0.2028 -0.0363  0.8443
18921THY    HM263500   4.416   1.724   3.675 -0.6630  0.5895 -0.9100
18921THY    HM363501   4.535   1.607   3.729 -0.1049  0.6368  0.2140
18921THY    CA663502   4.336   1.422   3.695  0.5432  0.1881  0.1652
18921THY    HA663503   4.430   1.386   3.653 -0.0768 -1.3410  0.2256
18922THY      O63504   2.910   0.075   6.869  0.0229  0.1391  0.3508
18922THY     HO63505   2.907   0.012   6.795  1.2681  1.0265 -0.8177
18922THY    CA163506   2.909   0.199   6.817  0.1218 -0.0074  0.1322
18922THY    CA263507   2.956   0.309   6.888  0.0505 -0.6108  0.2786
18922THY    CP163508   3.009   0.294   7.036 -0.2798 -0.4668 -0.0909
18922THY    HP163509   3.033   0.191   7.064 -1.7703  2.1689  0.1911
18922THY    CP263510   2.908   0.357   7.131 -0.5289 -0.4120 -0.7775
18922THY    HP263511   2.891   0.464   7.118  1.2050  4.8843  0.4278
18922THY    HP363512   2.941   0.343   7.235  1.3274 -0.6261  1.4264
18922THY    HP463513   2.810   0.311   7.112 -1.8396  0.7772  1.3476
18922THY    CP363514   3.149   0.356   7.054  0.5667 -0.0727 -0.2314
18922THY    HP563515   3.209   0.311   6.973  0.1636 -1.3656  1.4541
18922THY    HP663516   3.211   0.324   7.139  2.4490 -1.3500 -0.1515
18922THY    HP763517   3.162   0.465   7.053  2.8657 -0.1399 -0.4556
18922THY    CA363518   2.946   0.442   6.840 -0.3922 -0.0497  0.6419
18922THY    HA363519   2.988   0.529   6.890 -0.7602 -0.4983  1.0795
18922THY    CA463520   2.910   0.460   6.707  0.3850 -0.1383  0.0849
18922THY    HA463521   2.916   0.560   6.665 -0.8066  1.7798  1.0114
18922THY    CA563522   2.871   0.352   6.627 -0.1815  0.7914  0.0279
18922THY    CM163523   2.846   0.368   6.479  0.5035  0.0445 -0.0817
18922THY    HM163524   2.777   0.289   6.450 -0.2682  0.2885  0.4885
18922THY    HM263525   2.934   0.347   6.416  2.4347  2.5509  0.0016
18922THY    HM363526   2.812   0.470   6.457 -0.4528  1.5784 -0.0427
18922THY    CA663527   2.861   0.221   6.684  0.3444 -1.2366 -0.2505
18922THY    HA663528   2.818   0.138   6.629  1.2631  0.3961 -1.8703
18923THY      O63529   0.317   4.597   5.035  0.0834 -0.9029  0.0668
18923THY     HO63530   0.357   4.562   4.953  0.3431 -1.0687  0.7376
18923THY    CA163531   0.419   4.661   5.098 -0.2174  0.0074  0.2741
18923THY    CA263532   0.417   4.692   5.235 -0.9399  0.8752  0.2295
18923THY    CP163533   0.300   4.660   5.320  0.9503 -0.7303  0.6043
18923THY    HP163534   0.213   4.641   5.257  0.6380  0.0222 -0.6080
18923THY    CP263535   0.270   4.775   5.426  0.6902  0.5824 -0.2429
18923THY    HP263536   0.161   4.779   5.432  0.5888 -0.4173 -1.2167
18923THY    HP363537   0.318   4.863   5.381  0.0608 -0.2519 -0.3171
18923THY    HP463538   0.312   4.760   5.527  1.7742  0.0584 -0.8229
18923THY    CP363539   0.318   4.526   5.405  0.0304  0.3379 -0.1429
18923THY    HP563540   0.420   4.520   5.445  1.6010 -3.2404  0.4899
18923THY    HP663541   0.311   4.439   5.339 -0.5460  0.4033 -0.1536
18923THY    HP763542   0.239   4.512   5.480 -0.7081 -0.6526 -1.5310
18923THY    CA363543   0.532   4.743   5.288  0.1281  0.0007 -0.2288
18923THY    HA363544   0.525   4.769   5.393 -2.0062 -0.3294  0.7212
18923THY    CA463545   0.650   4.775   5.212 -0.3917 -0.3847 -0.5076
18923THY    HA463546   0.735   4.823   5.261 -0.5809 -1.5643  1.1285
18923THY    CA563547   0.641   4.747   5.080  0.2764  0.6245  0.5835
18923THY    CM163548   0.753   4.780   4.992 -0.1190  0.2906 -0.2445
18923THY    HM163549   0.820   4.695   4.977  0.3512  0.0015  0.1755
18923THY    HM263550   0.814   4.862   5.032 -1.7783 -0.4618  1.4359
18923THY    HM363551   0.717   4.823   4.898 -1.0441  0.3697 -0.8050
18923THY    CA663552   0.528   4.690   5.017 -0.0120 -0.3971 -0.5273
18923THY    HA663553   0.533   4.666   4.911 -1.2996 -0.8555  1.0559
18924THY      O63554   1.273   3.249   2.720  0.0824 -0.1462  0.1285
18924THY     HO63555   1.286   3.242   2.624 -1.4510 -0.5695  2.2222
18924THY    CA163556   1.397   3.230   2.762 -0.2229 -0.3026  0.3053
18924THY    CA263557   1.447   3.196   2.888 -0.1092 -0.0422  0.9131
18924THY    CP163558   1.343   3.188   3.003  0.0456 -0.3235  0.1018
18924THY    HP163559   1.247   3.235   2.976  0.9823  0.0296  2.3796
18924THY    CP263560   1.403   3.235   3.133 -0.1751  0.2642  0.7362
18924THY    HP263561   1.332   3.242   3.216  1.7088  2.0048  0.1188
18924THY    HP363562   1.447   3.336   3.130 -0.5914 -1.9489  0.8957
18924THY    HP463563   1.474   3.162   3.173  0.6351 -0.1758  1.2699
18924THY    CP363564   1.289   3.039   3.014 -0.1726 -0.5395  0.1204
18924THY    HP563565   1.368   2.966   2.989 -0.2589  0.0516 -0.1807
18924THY    HP663566   1.205   3.025   2.945 -1.7408  1.2925  0.1323
18924THY    HP763567   1.262   3.009   3.116 -0.7326 -0.3566  1.2103
18924THY    CA363568   1.579   3.151   2.905  0.1090  0.1852  0.3388
18924THY    HA363569   1.624   3.125   3.001  0.2131 -0.1357 -0.7328
18924THY    CA463570   1.655   3.148   2.792 -0.5895  0.3669  0.0049
18924THY    HA463571   1.750   3.096   2.800 -1.0784 -0.3938 -1.0402
18924THY    CA563572   1.617   3.188   2.664 -0.3961 -0.2547  0.1339
18924THY    CM163573   1.706   3.169   2.546  0.6805 -0.6203  0.4509
18924THY    HM163574   1.812   3.164   2.576 -0.0472  1.9536 -1.6084
18924THY    HM263575   1.696   3.246   2.469  2.1191 -1.3619 -0.0674
18924THY    HM363576   1.675   3.080   2.490 -2.0039  1.9174 -0.3476
18924THY    CA663577   1.490   3.244   2.654  0.1441  0.2804 -0.3274
18924THY    HA663578   1.461   3.266   2.551  1.5952 -0.0283  0.2274
18925THY      O63579   3.612   4.515   4.317  0.1297  0.5967  0.4752
18925THY     HO63580   3.567   4.506   4.231 -2.5618  1.9396  0.2547
18925THY    CA163581   3.622   4.648   4.352 -0.8974 -0.3022 -0.5459
18925THY    CA263582   3.661   4.699   4.473 -0.2687 -0.5385  0.2861
18925THY    CP163583   3.699   4.603   4.583 -0.6396 -0.6712 -0.7056
18925THY    HP163584   3.759   4.518   4.547  1.4944  0.8350  0.0604
18925THY    CP263585   3.578   4.533   4.645 -0.4942 -0.4966  0.5242
18925THY    HP263586   3.497   4.517   4.573 -0.1780 -0.6239 -0.6200
18925THY    HP363587   3.547   4.599   4.727 -0.0956  0.0776  0.0130
18925THY    HP463588   3.612   4.439   4.691  0.5311  1.7100  1.9077
18925THY    CP363589   3.793   4.670   4.695 -0.5105  0.2241  0.2496
18925THY    HP563590   3.877   4.730   4.659  0.0046 -0.7568 -1.0447
18925THY    HP663591   3.829   4.586   4.755  1.5551 -1.5483 -0.2167
18925THY    HP763592   3.717   4.724   4.754 -1.0528 -1.5209  1.5134
18925THY    CA363593   3.667   4.836   4.495 -0.4242  0.0307  0.0765
18925THY    HA363594   3.710   4.886   4.582 -1.8781  0.3263  0.8743
18925THY    CA463595   3.646   4.923   4.392  0.4325  0.4067  0.4621
18925THY    HA463596   3.672   5.028   4.403  0.6008  1.3719  0.3283
18925THY    CA563597   3.592   4.875   4.274 -0.3386 -0.6402 -0.2882
18925THY    CM163598   3.560   4.970   4.155 -0.8808  0.0042 -0.2483
18925THY    HM163599   3.543   4.904   4.070 -1.4280 -1.5773  1.8158
18925THY    HM263600   3.648   5.033   4.136 -2.0141 -0.1291  1.3749
18925THY    HM363601   3.471   5.032   4.173  0.7529  0.0410  2.2117
18925THY    CA663602   3.587   4.740   4.256 -0.1754 -0.0242  0.3506
18925THY    HA663603   3.548   4.701   4.162 -3.1798  1.1709  0.1602
18926THY      O63604   0.808   3.785   7.419  0.0184 -0.4155  0.2116
18926THY     HO63605   0.867   3.721   7.375 -1.9125  0.7576 -2.6007
18926THY    CA163606   0.744   3.836   7.316  0.0093  0.1739  0.9511
18926THY    CA263607   0.663   3.956   7.331  0.4672 -0.4351 -0.1723
18926THY    CP163608   0.648   4.032   7.466  0.0999  0.0967  0.0812
18926THY    HP163609   0.705   3.974   7.539 -1.7200  1.6825  0.1940
18926THY    CP263610   0.515   4.027   7.530 -0.3154  1.2663  0.1273
18926THY    HP263611   0.487   3.921   7.524 -0.5277 -3.9037  0.2312
18926THY    HP363612   0.451   4.102   7.483  1.4609  0.3087  1.1063
18926THY    HP463613   0.525   4.059   7.635 -2.6921  2.1264 -1.5933
18926THY    CP363614   0.704   4.180   7.462 -0.0845 -0.1018 -0.1398
18926THY    HP563615   0.804   4.189   7.420  0.6941  1.9555  1.8945
18926THY    HP663616   0.718   4.229   7.559 -2.3796  0.0880  0.2560
18926THY    HP763617   0.647   4.243   7.393  0.4400 -1.2204 -0.8649
18926THY    CA363618   0.594   4.012   7.216 -0.0761 -0.2064  0.1957
18926THY    HA363619   0.531   4.099   7.233  1.4016 -0.0641  1.2855
18926THY    CA463620   0.596   3.945   7.097  0.3008  0.3335  0.1654
18926THY    HA463621   0.533   3.985   7.018  1.2123  0.2088  1.4286
18926THY    CA563622   0.675   3.833   7.082  0.1813  1.0581  0.4821
18926THY    CM163623   0.683   3.768   6.942 -0.4255  0.0563  0.1931
18926THY    HM163624   0.663   3.832   6.855  0.3275  0.3870  0.8875
18926THY    HM263625   0.603   3.692   6.944  0.5813  1.5825 -0.8678
18926THY    HM363626   0.770   3.704   6.926 -1.2124  0.9970 -1.1792
18926THY    CA663627   0.744   3.779   7.192  0.0663  1.1146  0.2741
18926THY    HA663628   0.800   3.688   7.173 -1.8656 -2.6920 -0.3586
18927THY      O63629   6.364   2.888   5.456 -0.0565  0.0472  0.3913
18927THY     HO63630   6.414   2.929   5.384  3.0025  0.0674 -2.7862
18927THY    CA163631   6.232   2.924   5.449  0.2759  0.1723 -0.1654
18927THY    CA263632   6.138   2.866   5.535  0.1697  0.4691 -0.1609
18927THY    CP163633   6.192   2.767   5.636  0.0354 -0.4293  0.5959
18927THY    HP163634   6.301   2.774   5.646  0.0958 -0.5700 -0.0355
18927THY    CP263635   6.162   2.625   5.574 -0.1651 -0.0651  0.0433
18927THY    HP263636   6.209   2.622   5.475 -1.8748 -0.9912  1.5507
18927THY    HP363637   6.057   2.595   5.562  1.0689 -2.0146 -4.2133
18927THY    HP463638   6.227   2.556   5.629  1.3424 -1.1545  0.5500
18927THY    CP363639   6.129   2.788   5.770  0.2059 -0.3415 -0.5230
18927THY    HP563640   6.181   2.724   5.842  0.4669 -0.5884 -0.5938
18927THY    HP663641   6.024   2.759   5.768  0.0534 -1.0991  0.0386
18927THY    HP763642   6.153   2.892   5.795 -1.8977  0.0249 -0.0950
18927THY    CA363643   6.001   2.885   5.519  0.2433  0.0340 -0.4289
18927THY    HA363644   5.925   2.827   5.571 -1.5991 -0.9658  0.9954
18927THY    CA463645   5.959   2.977   5.409 -0.6980 -0.5875  0.1947
18927THY    HA463646   5.854   3.004   5.402 -1.0829  1.0460 -0.7674
18927THY    CA563647   6.056   3.035   5.327 -0.5420 -0.1715 -0.1857
18927THY    CM163648   6.022   3.120   5.200  0.2140 -0.6731 -0.3395
18927THY    HM163649   6.022   3.227   5.223 -1.9290 -0.9900 -0.2282
18927THY    HM263650   5.921   3.108   5.159  0.4918 -1.3603 -0.3856
18927THY    HM363651   6.102   3.107   5.126  1.1442 -0.0195  1.4467
18927THY    CA663652   6.195   3.017   5.356  1.1668 -0.1710 -0.5547
18927THY    HA663653   6.269   3.044   5.282  1.3472 -1.2145 -3.4949
18928THY      O63654   8.009   5.994   6.205  0.5430  0.4414  0.5949
18928THY     HO63655   8.044   5.969   6.118 -0.3006 -0.5378  2.6305
18928THY    CA163656   8.081   5.924   6.289  0.6420 -0.1235 -0.4832
18928THY    CA263657   8.046   5.897   6.417  0.8216  0.0022 -0.6183
18928THY    CP163658   7.916   5.947   6.482 -0.4335 -0.2667 -0.0721
18928THY    HP163659   7.849   6.005   6.417 -0.7581 -0.0076 -0.1557
18928THY    CP263660   7.945   6.026   6.606  0.7266  0.3327  0.0604
18928THY    HP263661   7.845   6.042   6.648 -0.3137 -1.6638 -0.7709
18928THY    HP363662   7.997   6.118   6.578  1.6437 -0.0181 -0.5492
18928THY    HP463663   8.005   5.965   6.674  0.6067 -0.2750 -0.7602
18928THY    CP363664   7.823   5.829   6.509 -0.0906  0.3525  0.2863
18928THY    HP563665   7.727   5.875   6.532 -0.0395 -0.3153  0.7338
18928THY    HP663666   7.864   5.779   6.598  1.0385  0.4163  1.2811
18928THY    HP763667   7.812   5.760   6.424  0.5664  1.2729 -0.9998
18928THY    CA363668   8.127   5.815   6.496 -0.7204 -0.8658  0.9333
18928THY    HA363669   8.105   5.783   6.598  3.1558 -0.4286 -0.9110
18928THY    CA463670   8.244   5.754   6.443  0.3531  0.3268 -0.9315
18928THY    HA463671   8.299   5.686   6.507 -0.7344  1.6215 -0.6423
18928THY    CA563672   8.281   5.783   6.310  0.2792 -0.6607 -0.0471
18928THY    CM163673   8.399   5.719   6.248 -1.0364 -0.5328  0.0003
18928THY    HM163674   8.384   5.690   6.144 -0.2443 -1.1254  1.5929
18928THY    HM263675   8.438   5.631   6.300 -2.1956  0.1760 -0.1164
18928THY    HM363676   8.475   5.798   6.252  0.4784  2.4491 -1.4324
18928THY    CA663677   8.197   5.870   6.238 -0.1221  0.3064  0.3782
18928THY    HA663678   8.231   5.897   6.138  1.7676  1.0988  1.0666
18929THY      O63679   7.591   8.687   2.746 -0.0234  0.1812 -0.3895
18929THY     HO63680   7.620   8.599   2.774 -2.3492 -1.2333 -1.7267
18929THY    CA163681   7.614   8.773   2.842  0.1551  0.1549 -0.1735
18929THY    CA263682   7.595   8.912   2.816 -0.4308  0.4234 -0.3582
18929THY    CP163683   7.562   8.965   2.679 -0.4449 -0.5850 -0.2575
18929THY    HP163684   7.498   8.889   2.634  2.8461  0.8132 -4.1857
18929THY    CP263685   7.693   9.003   2.594  1.1584  0.9597  0.9013
18929THY    HP263686   7.757   9.081   2.637  0.8278 -0.0295  1.7405
18929THY    HP363687   7.644   9.047   2.507 -1.0124  0.7583 -1.6134
18929THY    HP463688   7.751   8.915   2.564 -0.9612  0.3452 -0.3670
18929THY    CP363689   7.478   9.099   2.698  0.6195 -0.5587 -0.1312
18929THY    HP563690   7.418   9.132   2.612 -4.6895  3.0296  0.8521
18929THY    HP663691   7.543   9.183   2.724  0.5970 -1.2107  0.0950
18929THY    HP763692   7.402   9.087   2.776  2.6812  1.4878 -0.5899
18929THY    CA363693   7.626   8.995   2.925  0.1749  0.5213  0.5144
18929THY    HA363694   7.609   9.102   2.915 -0.5509 -1.9542  0.2209
18929THY    CA463695   7.667   8.938   3.049  0.9206 -0.1448 -0.4204
18929THY    HA463696   7.673   9.000   3.137  1.4543 -1.5033  1.5686
18929THY    CA563697   7.684   8.798   3.065 -0.1808 -0.4707  0.7721
18929THY    CM163698   7.708   8.736   3.201  0.1899 -0.2879  0.1406
18929THY    HM163699   7.760   8.640   3.190 -0.6876 -3.2917 -0.1002
18929THY    HM263700   7.612   8.718   3.250 -0.3805 -1.5163 -0.3244
18929THY    HM363701   7.754   8.807   3.271 -0.7336  2.0993 -1.4786
18929THY    CA663702   7.662   8.717   2.958  0.9218  0.0651 -0.0453
18929THY    HA663703   7.671   8.610   2.973  0.2410 -0.4024 -0.1718
18930THY      O63704   6.335   7.869   3.647  0.0677 -0.1086  0.3442
18930THY     HO63705   6.260   7.915   3.604  0.7260 -0.0363  1.5332
18930THY    CA163706   6.290   7.765   3.711  0.6092  0.2231  0.0823
18930THY    CA263707   6.219   7.777   3.834 -0.4153 -0.1988 -0.0739
18930THY    CP163708   6.201   7.915   3.904  0.0190  0.2530  0.3892
18930THY    HP163709   6.175   7.988   3.827 -2.2367 -0.5600 -1.1537
18930THY    CP263710   6.327   7.961   3.982 -0.8768 -0.0536  0.3422
18930THY    HP263711   6.319   7.946   4.090 -0.2841 -0.1768 -1.0586
18930THY    HP363712   6.341   8.068   3.960 -0.8223 -4.8567 -0.4281
18930THY    HP463713   6.421   7.922   3.941 -1.1780  1.1491 -1.8039
18930THY    CP363714   6.076   7.929   3.993  0.0239 -0.7302 -0.3946
18930THY    HP563715   6.099   7.873   4.085 -1.5861  0.2155  0.4317
18930THY    HP663716   5.987   7.898   3.938  0.8473 -1.9574 -0.6714
18930THY    HP763717   6.053   8.030   4.028 -1.3473 -0.9382 -0.6189
18930THY    CA363718   6.161   7.659   3.887  0.1626 -0.0120 -0.0749
18930THY    HA363719   6.105   7.659   3.980  1.4392  0.7827 -0.2139
18930THY    CA463720   6.165   7.539   3.816  0.2651  0.4648  0.1219
18930THY    HA463721   6.109   7.450   3.844  0.2620 -0.4556 -0.1822
18930THY    CA563722   6.233   7.528   3.696  0.8013 -0.6143  0.1708
18930THY    CM163723   6.253   7.394   3.623 -1.0368 -0.0549  0.0236
18930THY    HM163724   6.294   7.321   3.694 -1.8802 -0.5357 -0.9474
18930THY    HM263725   6.334   7.416   3.553 -2.1872 -1.4080  0.0855
18930THY    HM363726   6.173   7.345   3.567  0.8572 -0.6669 -2.5853
18930THY    CA663727   6.291   7.638   3.641 -0.5741  0.1757 -0.8167
18930THY    HA663728   6.340   7.640   3.544  0.3699  0.6295 -1.2304
18931THY      O63729   3.065   5.434   4.690  0.8661  0.2279  0.1587
18931THY     HO63730   3.086   5.528   4.702  2.2839 -1.4554  0.1216
18931THY    CA163731   2.967   5.405   4.781 -0.2004  1.3474  0.1635
18931THY    CA263732   2.922   5.276   4.788  0.0194 -0.3938  0.1463
18931THY    CP163733   2.979   5.164   4.709  0.3529  0.4617  0.5544
18931THY    HP163734   3.022   5.193   4.612 -0.2509 -0.7849 -2.3024
18931THY    CP263735   2.872   5.067   4.651 -0.7057 -0.2471  0.1359
18931THY    HP263736   2.812   5.018   4.728 -0.7717  0.4551  1.2663
18931THY    HP363737   2.916   4.983   4.597 -0.8118  1.8519 -1.3615
18931THY    HP463738   2.799   5.115   4.586 -0.0346 -1.8265 -0.9210
18931THY    CP363739   3.078   5.085   4.794 -0.3553 -0.8057 -0.9966
18931THY    HP563740   3.141   5.009   4.747 -0.7030 -1.0426 -1.1415
18931THY    HP663741   3.027   5.044   4.882  0.9011 -1.4937 -4.3003
18931THY    HP763742   3.143   5.160   4.841  1.6495  0.6978 -3.4879
18931THY    CA363743   2.818   5.254   4.875 -0.3062  0.2517  0.3195
18931THY    HA363744   2.799   5.151   4.903 -1.2355 -0.7507  0.1971
18931THY    CA463745   2.757   5.358   4.946 -0.1183  0.1463 -0.5685
18931THY    HA463746   2.679   5.320   5.011  0.6740  1.1350 -0.5419
18931THY    CA563747   2.794   5.491   4.914  0.4470  0.1633 -0.0277
18931THY    CM163748   2.715   5.610   4.961  0.6820  0.5836 -0.2248
18931THY    HM163749   2.608   5.586   4.963  0.3202 -4.9972 -0.4656
18931THY    HM263750   2.737   5.695   4.895  1.6217  3.3197  1.7888
18931THY    HM363751   2.746   5.645   5.060  0.4663  0.4056  0.4984
18931THY    CA663752   2.884   5.511   4.814 -0.5851  0.1051  0.4200
18931THY    HA663753   2.896   5.613   4.780  3.6358  0.8369  0.3591
18932THY      O63754   2.020   8.533   5.460  0.0177  0.2660  0.3683
18932THY     HO63755   2.089   8.464   5.471 -0.1332 -1.4087 -0.0794
18932THY    CA163756   1.922   8.455   5.416 -0.0105 -0.0512 -0.4061
18932THY    CA263757   1.793   8.511   5.382  0.5143  0.2923 -0.4091
18932THY    CP163758   1.767   8.663   5.370  0.3516  0.9531  0.1973
18932THY    HP163759   1.858   8.722   5.389 -0.4033  2.0644  1.0538
18932THY    CP263760   1.668   8.715   5.471 -0.5581 -0.3116  0.9485
18932THY    HP263761   1.697   8.668   5.565  0.5195 -0.7258  0.7452
18932THY    HP363762   1.570   8.671   5.452 -0.2410 -0.7062  0.4098
18932THY    HP463763   1.662   8.824   5.483  1.5114  1.7026  0.9319
18932THY    CP363764   1.728   8.715   5.232 -1.1419 -0.1107 -0.0304
18932THY    HP563765   1.694   8.818   5.248  2.1389  1.2451  0.9890
18932THY    HP663766   1.641   8.664   5.191 -0.7372  1.2308 -1.9365
18932THY    HP763767   1.807   8.709   5.156 -1.6739 -0.6759  0.1026
18932THY    CA363768   1.686   8.424   5.365  0.3857 -0.5044 -0.4340
18932THY    HA363769   1.586   8.457   5.340 -0.0104  0.3530 -0.9710
18932THY    CA463770   1.703   8.286   5.379 -0.0045  0.2594 -0.5001
18932THY    HA463771   1.617   8.219   5.377 -1.0875  1.6715  0.7658
18932THY    CA563772   1.828   8.230   5.407  0.1307 -0.4517 -0.6747
18932THY    CM163773   1.835   8.086   5.416 -0.6622  0.1201 -0.8011
18932THY    HM163774   1.932   8.036   5.420 -0.7473 -0.1169 -0.9895
18932THY    HM263775   1.793   8.044   5.323 -0.0146  0.9270 -3.3909
18932THY    HM363776   1.776   8.038   5.494 -0.8536 -0.7790 -2.0711
18932THY    CA663777   1.941   8.312   5.419 -0.4830 -0.3183  0.3882
18932THY    HA663778   2.032   8.261   5.451 -2.1240  0.7336 -2.0449
18933THY      O63779   4.902   0.798   2.280  0.4000 -0.7685  0.1733
18933THY     HO63780   4.834   0.815   2.213 -2.8972  1.1896 -3.7301
18933THY    CA163781   5.003   0.876   2.262 -0.5148 -0.6928 -0.3542
18933THY    CA263782   5.139   0.839   2.305 -0.0527 -0.3803 -0.0952
18933THY    CP163783   5.164   0.697   2.368 -0.3262 -0.2864 -0.2803
18933THY    HP163784   5.064   0.660   2.396 -0.4646 -0.0841  0.2347
18933THY    CP263785   5.263   0.707   2.484  0.2847 -0.1668  0.1362
18933THY    HP263786   5.248   0.798   2.542  2.1871  0.9646 -0.2277
18933THY    HP363787   5.361   0.703   2.435  0.1100 -0.7332  1.8196
18933THY    HP463788   5.242   0.620   2.547 -0.2395 -0.7134 -0.1392
18933THY    CP363789   5.218   0.605   2.267  0.5142  0.8380 -0.1788
18933THY    HP563790   5.319   0.638   2.241  0.6354  0.9518 -0.4606
18933THY    HP663791   5.158   0.601   2.175  0.8526  0.5453  0.9716
18933THY    HP763792   5.221   0.505   2.311  1.8220  1.3970  0.0901
18933THY    CA363793   5.235   0.942   2.316  0.6723  0.1618  0.8778
18933THY    HA363794   5.333   0.925   2.360 -0.6990  2.9592 -0.3599
18933THY    CA463795   5.195   1.076   2.273 -0.4006  0.4197  0.3743
18933THY    HA463796   5.255   1.161   2.303 -2.5649  1.2065  1.7068
18933THY    CA563797   5.072   1.105   2.217  0.4126 -0.0415  0.0636
18933THY    CM163798   5.038   1.255   2.190 -0.4423  0.5912  0.4042
18933THY    HM163799   4.949   1.255   2.127  2.3952 -3.9172 -1.9676
18933THY    HM263800   5.119   1.310   2.139 -2.7556  0.7255  4.3674
18933THY    HM363801   5.014   1.298   2.288  1.2559  1.2619 -0.0804
18933THY    CA663802   4.971   1.009   2.219 -0.2050 -0.6528 -0.4280
18933THY    HA663803   4.866   1.036   2.220  0.1296 -1.7594  1.0527
18934THY      O63804   5.959   8.175   5.166 -0.7800  0.0897 -0.7060
18934THY     HO63805   5.898   8.219   5.228  2.0694  1.8739  1.0627
18934THY    CA163806   6.018   8.076   5.241  0.0838 -0.1643  0.2164
18934THY    CA263807   6.140   8.028   5.201 -0.3404 -0.2419 -0.8250
18934THY    CP163808   6.208   8.081   5.065 -0.2014 -0.3889  0.6054
18934THY    HP163809   6.184   8.187   5.050 -0.3096 -2.3760  0.3355
18934THY    CP263810   6.168   7.986   4.951  0.2069  0.2611  0.1278
18934THY    HP263811   6.216   8.023   4.860  0.1149 -0.3021 -1.1068
18934THY    HP363812   6.059   7.979   4.945  0.1393  0.4850  0.8356
18934THY    HP463813   6.198   7.882   4.967  1.1562 -1.2703  0.1339
18934THY    CP363814   6.358   8.104   5.083  0.2675  0.1786  0.9139
18934THY    HP563815   6.403   8.154   4.996 -1.0256 -1.2663 -0.3373
18934THY    HP663816   6.396   8.001   5.087 -0.9796 -0.7731  0.3931
18934THY    HP763817   6.386   8.158   5.173 -0.5072 -0.2322  2.0289
18934THY    CA363818   6.200   7.929   5.281 -0.6731  0.4826  0.4478
18934THY    HA363819   6.298   7.890   5.256 -0.5714 -0.2974  1.1799
18934THY    CA463820   6.140   7.888   5.398  0.8997  0.0233  0.1608
18934THY    HA463821   6.195   7.813   5.454  1.4358 -1.1099 -0.3209
18934THY    CA563822   6.010   7.936   5.440 -0.6764 -0.0721  0.0789
18934THY    CM163823   5.946   7.883   5.570  0.0994 -0.3265  0.5429
18934THY    HM163824   6.000   7.924   5.656 -0.7717  0.2323  0.5352
18934THY    HM263825   5.948   7.774   5.584 -0.3714  1.4994  0.7455
18934THY    HM363826   5.841   7.914   5.562 -0.8480  0.5212 -2.1970
18934THY    CA663827   5.951   8.031   5.359 -1.3259  0.1304 -0.5343
18934THY    HA663828   5.855   8.075   5.384 -2.0150  0.9170 -2.3807
18935THY      O63829   1.138   6.212   6.539 -0.4904 -0.5127  0.4413
18935THY     HO63830   1.086   6.293   6.549 -1.0879  0.1110  0.0018
18935THY    CA163831   1.055   6.102   6.549  0.5588  0.3986  0.2257
18935THY    CA263832   1.079   5.975   6.494  0.3643 -0.2232  0.7445
18935THY    CP163833   1.208   5.952   6.427 -0.5098 -0.0144  0.0992
18935THY    HP163834   1.260   6.048   6.415 -1.6827 -1.3979  0.5916
18935THY    CP263835   1.190   5.912   6.280 -0.3490 -0.5301  0.2518
18935THY    HP263836   1.125   5.823   6.277 -2.6830  0.0083  1.8375
18935THY    HP363837   1.281   5.869   6.239 -0.9574 -0.3421 -1.3073
18935THY    HP463838   1.139   5.993   6.228 -1.7707  0.3264 -0.0415
18935THY    CP363839   1.296   5.863   6.510 -0.1257  0.6753  0.7442
18935THY    HP563840   1.339   5.913   6.597 -0.4008  0.2790  1.6895
18935THY    HP663841   1.378   5.824   6.449  0.4848  0.5963  2.1159
18935THY    HP763842   1.244   5.774   6.550  0.7564  1.3566  0.5260
18935THY    CA363843   0.986   5.869   6.502 -0.9129 -0.3472 -0.0973
18935THY    HA363844   1.006   5.777   6.448  1.4917 -1.2335  0.8822
18935THY    CA463845   0.865   5.884   6.580  0.0220  0.8335 -0.1308
18935THY    HA463846   0.795   5.801   6.595 -1.6586 -2.8818  0.4282
18935THY    CA563847   0.842   6.010   6.640  0.6856  0.6185  0.1521
18935THY    CM163848   0.725   6.028   6.729  0.6246  0.2600 -0.3741
18935THY    HM163849   0.756   6.013   6.833  2.0567 -0.1470 -0.3795
18935THY    HM263850   0.647   5.954   6.710  1.0993  1.5166 -1.2355
18935THY    HM363851   0.674   6.125   6.723 -0.2870 -0.5171 -0.8913
18935THY    CA663852   0.935   6.117   6.625 -0.2061  0.3550  0.2340
18935THY    HA663853   0.922   6.206   6.685 -0.6640 -1.4925  1.4841
18936THY      O63854   0.710   1.625   4.394  0.0412 -0.6241 -0.3123
18936THY     HO63855   0.701   1.627   4.491 -2.8954 -0.8151 -0.2507
18936THY    CA163856   0.815   1.556   4.351  0.4885  0.4049  0.3849
18936THY    CA263857   0.844   1.430   4.407  0.7652 -0.6477  0.2046
18936THY    CP163858   0.755   1.378   4.524 -0.1453 -0.0966  0.6696
18936THY    HP163859   0.722   1.457   4.593  0.1421  0.1531  0.5776
18936THY    CP263860   0.835   1.270   4.613 -0.0099  0.4934  0.4503
18936THY    HP263861   0.790   1.242   4.709  1.5807  0.3768 -3.1584
18936THY    HP363862   0.922   1.332   4.637  0.7666 -0.2891 -0.2891
18936THY    HP463863   0.865   1.179   4.559 -0.6463  1.6593 -0.4755
18936THY    CP363864   0.617   1.317   4.479 -0.6033  0.4016  0.4697
18936THY    HP563865   0.555   1.287   4.565 -0.2775  1.1643  1.8990
18936THY    HP663866   0.635   1.237   4.407  1.0401 -1.2936  2.2495
18936THY    HP763867   0.564   1.400   4.430 -1.3837  1.6330  0.7388
18936THY    CA363868   0.953   1.348   4.360  0.4858 -0.2184 -0.1774
18936THY    HA363869   0.983   1.252   4.401  1.3427  0.7481  0.4891
18936THY    CA463870   1.039   1.398   4.258  0.0103 -1.0908 -0.8257
18936THY    HA463871   1.121   1.337   4.221  0.4342 -0.6270 -0.5473
18936THY    CA563872   1.013   1.531   4.204  0.3127 -0.0427  0.0393
18936THY    CM163873   1.093   1.587   4.084  0.4385 -1.0583  1.0072
18936THY    HM163874   1.069   1.522   3.999 -0.3851  0.1150 -0.2530
18936THY    HM263875   1.201   1.588   4.102  0.1678  0.8990 -0.7128
18936THY    HM363876   1.063   1.691   4.067  1.3949 -1.3499  1.2522
18936THY    CA663877   0.900   1.599   4.247  0.7004  0.4587  0.0646
18936THY    HA663878   0.868   1.687   4.192 -1.4402  0.2075 -0.8050
18937THY      O63879   4.458   7.077   4.598  0.2706 -0.1141 -0.1369
18937THY     HO63880   4.498   7.013   4.536 -1.9668  0.4143 -2.1564
18937THY    CA163881   4.321   7.076   4.586 -0.0932  0.1089  0.0195
18937THY    CA263882   4.240   7.155   4.670 -0.0176 -0.4200  0.1232
18937THY    CP163883   4.307   7.260   4.760  0.6658 -0.0438 -0.9636
18937THY    HP163884   4.413   7.240   4.778  0.8706 -0.7837 -0.5775
18937THY    CP263885   4.233   7.280   4.897 -0.4411 -1.0156 -0.0129
18937THY    HP263886   4.291   7.352   4.955 -0.7375  1.3481 -1.5717
18937THY    HP363887   4.214   7.191   4.959 -1.3031 -0.3057  0.6513
18937THY    HP463888   4.141   7.338   4.885 -0.6755  1.9298  0.3445
18937THY    CP363889   4.305   7.399   4.688 -0.2513 -0.2206 -0.0481
18937THY    HP563890   4.202   7.434   4.675 -1.9707  1.6336 -3.7448
18937THY    HP663891   4.361   7.394   4.594  1.1650  0.6437 -3.0255
18937THY    HP763892   4.361   7.475   4.742  0.6007 -2.1342  0.7505
18937THY    CA363893   4.104   7.125   4.682 -0.4001 -0.4017  0.5318
18937THY    HA363894   4.046   7.184   4.751 -2.6008 -2.4609  0.8980
18937THY    CA463895   4.046   7.025   4.607  0.5190 -0.5639  0.3774
18937THY    HA463896   3.939   7.007   4.615  0.5900  1.3041  0.5634
18937THY    CA563897   4.121   6.951   4.517 -0.0200 -0.3785  0.0436
18937THY    CM163898   4.061   6.835   4.447 -0.0255 -0.1944 -0.0683
18937THY    HM163899   3.994   6.868   4.366 -1.8537  0.1495 -2.6201
18937THY    HM263900   4.001   6.788   4.525  0.5132  0.3216  0.0996
18937THY    HM363901   4.141   6.774   4.403  1.8909  1.7172  0.9416
18937THY    CA663902   4.259   6.972   4.517 -0.1927 -0.6835 -0.1883
18937THY    HA663903   4.322   6.907   4.458 -0.7531 -2.1946  0.6035
18938THY      O63904   4.608   8.897   3.383  0.4293  0.7446 -0.2072
18938THY     HO63905   4.535   8.833   3.389 -0.3327  2.8953  0.7466
18938THY    CA163906   4.565   9.004   3.315 -0.1735 -0.2124  0.0769
18938THY    CA263907   4.638   9.127   3.318 -0.2452  0.3366  0.1220
18938THY    CP163908   4.761   9.153   3.409  0.7004 -0.5835  0.1531
18938THY    HP163909   4.774   9.066   3.474  0.4147  1.1227  1.3292
18938THY    CP263910   4.764   9.268   3.507 -0.9585  0.1286 -0.0811
18938THY    HP263911   4.664   9.272   3.552 -2.2489 -2.4430 -0.8682
18938THY    HP363912   4.800   9.359   3.457  2.6243  0.3215 -1.2360
18938THY    HP463913   4.832   9.243   3.589 -0.5064 -0.5185 -1.0138
18938THY    CP363914   4.888   9.156   3.321  0.1060 -0.4611 -0.1318
18938THY    HP563915   4.967   9.110   3.380  2.0097 -0.9373  2.3255
18938THY    HP663916   4.903   9.259   3.286 -0.1203 -1.6698 -0.4834
18938THY    HP763917   4.878   9.087   3.236  1.0289 -3.0975  2.7853
18938THY    CA363918   4.587   9.234   3.243 -0.4158  0.3731  0.0336
18938THY    HA363919   4.647   9.324   3.248  0.7809  2.6877 -0.8191
18938THY    CA463920   4.478   9.210   3.159 -0.3604  0.3514 -0.0928
18938THY    HA463921   4.451   9.288   3.088  1.3765  0.1754  0.4103
18938THY    CA563922   4.413   9.096   3.158  0.3213 -0.0006 -0.7533
18938THY    CM163923   4.292   9.084   3.076  0.7863 -0.3703  0.4520
18938THY    HM163924   4.303   9.133   2.979  1.0458 -0.1927  0.7518
18938THY    HM263925   4.195   9.109   3.122 -0.3011 -1.0947 -2.0559
18938THY    HM363926   4.276   8.979   3.050 -0.9013 -1.1322  0.8601
18938THY    CA663927   4.453   8.989   3.240  0.1511  0.6613 -0.5073
18938THY    HA663928   4.393   8.901   3.259 -2.6633  0.3514  1.2399
18939THY      O63929   3.260   7.872   5.259 -0.0144  0.1263  0.4140
18939THY     HO63930   3.263   7.809   5.184 -0.3141  1.3779 -1.1644
18939THY    CA163931   3.179   7.816   5.354  0.3175  0.3524 -0.2755
18939THY    CA263932   3.127   7.904   5.448  0.1714 -0.2119 -0.2267
18939THY    CP163933   3.156   8.057   5.460  0.8140  0.3763 -0.5735
18939THY    HP163934   3.254   8.084   5.417  0.9411  0.0484 -1.5198
18939THY    CP263935   3.171   8.092   5.605 -0.1432  0.6665 -0.3584
18939THY    HP263936   3.084   8.085   5.671 -1.3977 -0.7662  0.9904
18939THY    HP363937   3.208   8.194   5.622  1.1075 -0.5358 -0.5887
18939THY    HP463938   3.247   8.023   5.644  0.1219 -0.3270 -0.6434
18939THY    CP363939   3.037   8.129   5.394 -0.7509  0.4748  0.0162
18939THY    HP563940   2.940   8.092   5.430  0.2648  3.2017 -0.2433
18939THY    HP663941   3.056   8.120   5.287  1.2227  0.7010  1.0628
18939THY    HP763942   3.043   8.235   5.421  3.1321  0.1527 -0.0044
18939THY    CA363943   3.048   7.840   5.549  0.6530 -0.4737 -0.5682
18939THY    HA363944   3.000   7.892   5.631 -0.6267 -0.6525 -1.4346
18939THY    CA463945   3.029   7.700   5.553 -0.1427 -0.1231 -0.0182
18939THY    HA463946   2.961   7.647   5.617 -1.3158 -0.3317  1.1715
18939THY    CA563947   3.082   7.628   5.449 -0.0937 -0.2507  0.7525
18939THY    CM163948   3.071   7.481   5.434  0.4277  0.1175  0.4260
18939THY    HM163949   3.164   7.431   5.406 -0.3188 -0.1896 -0.8444
18939THY    HM263950   2.985   7.448   5.375 -0.9072  2.7272 -1.1588
18939THY    HM363951   3.040   7.435   5.529  1.3604  0.4664  0.4924
18939THY    CA663952   3.164   7.684   5.356  0.0047 -0.2943 -0.3026
18939THY    HA663953   3.205   7.628   5.273  1.0735  0.0957 -0.1416
18940THY      O63954   5.586   6.742   6.028 -0.0677  0.3124  0.4100
18940THY     HO63955   5.616   6.667   6.083  2.4352  0.0988  1.1434
18940THY    CA163956   5.700   6.798   5.975 -0.0985 -0.0010  0.3299
18940THY    CA263957   5.684   6.881   5.859 -0.6257  0.3713  0.2877
18940THY    CP163958   5.550   6.921   5.799  0.2643 -0.0794  0.1592
18940THY    HP163959   5.456   6.885   5.843 -0.5616  0.0099  2.3136
18940THY    CP263960   5.531   6.865   5.659 -0.0129  0.6923  0.3847
18940THY    HP263961   5.601   6.898   5.582  0.2094  0.4853 -0.5590
18940THY    HP363962   5.430   6.872   5.614  0.3732 -0.1398  0.8562
18940THY    HP463963   5.544   6.757   5.666 -1.2585  1.4432  0.2582
18940THY    CP363964   5.530   7.079   5.804  0.4758  0.0703  0.0985
18940THY    HP563965   5.584   7.137   5.728  0.6346 -0.8108 -1.1592
18940THY    HP663966   5.558   7.115   5.904  2.5886  0.1224 -1.4741
18940THY    HP763967   5.423   7.103   5.809  0.4973 -0.6695  0.3704
18940THY    CA363968   5.802   6.943   5.803  0.0968  0.7209  0.3729
18940THY    HA363969   5.788   6.998   5.711 -0.6590 -0.0706 -1.0882
18940THY    CA463970   5.929   6.920   5.862 -0.7904 -0.7797 -0.8743
18940THY    HA463971   6.015   6.970   5.818 -1.2076 -0.3583  0.2457
18940THY    CA563972   5.943   6.833   5.979  0.4484  0.5522 -0.1688
18940THY    CM163973   6.075   6.814   6.055 -0.1376  0.9556  0.5343
18940THY    HM163974   6.077   6.887   6.137 -0.9594  1.1021  0.4017
18940THY    HM263975   6.153   6.827   5.979 -0.3017  0.6783 -0.0720
18940THY    HM363976   6.078   6.712   6.093 -0.1142  0.9942  0.5496
18940THY    CA663977   5.823   6.771   6.032 -0.2271  0.4913 -0.0879
18940THY    HA663978   5.829   6.705   6.119 -0.5266 -0.0166 -0.7975
18941THY      O63979   3.598   0.584   6.720  0.9871 -0.1070 -0.2123
18941THY     HO63980   3.692   0.569   6.740  0.5717  2.3581  0.0513
18941THY    CA163981   3.582   0.601   6.583  0.0351 -0.5066  0.2545
18941THY    CA263982   3.468   0.657   6.529 -0.4583  0.0532 -0.0116
18941THY    CP163983   3.368   0.730   6.620  0.4067  0.0967  0.3356
18941THY    HP163984   3.390   0.705   6.724  0.4663 -0.2909 -1.3444
18941THY    CP263985   3.222   0.695   6.602  0.2824  1.0350 -0.2437
18941THY    HP263986   3.185   0.748   6.513 -3.5724  1.9565 -1.0849
18941THY    HP363987   3.155   0.720   6.685 -3.0004 -1.3955 -0.1817
18941THY    HP463988   3.211   0.591   6.568  1.7371 -0.9945  0.2066
18941THY    CP363989   3.377   0.884   6.602  0.0084  0.0100  0.4786
18941THY    HP563990   3.350   0.913   6.500  0.9461 -0.0572  1.1478
18941THY    HP663991   3.478   0.912   6.633 -0.3547  0.0252  1.8058
18941THY    HP763992   3.310   0.934   6.673 -3.4057 -1.5469 -1.4772
18941THY    CA363993   3.443   0.659   6.390  0.6207  0.1596 -0.7707
18941THY    HA363994   3.348   0.686   6.345  0.4427 -1.3809 -3.5742
18941THY    CA463995   3.539   0.596   6.309  0.0699 -0.3149 -0.8290
18941THY    HA463996   3.518   0.586   6.203  0.6707 -0.5792  0.5195
18941THY    CA563997   3.654   0.537   6.368 -0.0034 -0.2817 -0.1347
18941THY    CM163998   3.754   0.463   6.282  0.4196 -0.5018 -0.1396
18941THY    HM163999   3.850   0.516   6.281  0.1101  1.1441  0.5131
18941THY    HM264000   3.713   0.464   6.181  0.6890 -0.6159  1.2824
18941THY    HM364001   3.754   0.360   6.318 -1.5415 -0.0789 -0.0268
18941THY    CA664002   3.682   0.542   6.509  0.9314  0.2990 -0.5965
18941THY    HA664003   3.769   0.503   6.560  0.0026  1.2781 -1.4314
18942THY      O64004   9.243   0.735   5.390  0.4550 -0.1458  0.2930
18942THY     HO64005   9.337   0.711   5.396  0.5766 -1.6802  0.2379
18942THY    CA164006   9.209   0.692   5.265  0.1740 -0.6651 -0.0382
18942THY    CA264007   9.095   0.615   5.238  0.0247  0.3855  0.7972
18942THY    CP164008   8.993   0.581   5.349  0.8248  0.4381  0.4436
18942THY    HP164009   9.053   0.573   5.440  0.6503  0.5145 -0.0371
18942THY    CP264010   8.908   0.452   5.345 -0.9464  0.3117 -0.9635
18942THY    HP264011   8.836   0.461   5.262  0.6715 -1.0830 -0.3913
18942THY    HP364012   8.858   0.430   5.440 -1.1801 -0.2307 -2.9574
18942THY    HP464013   8.981   0.371   5.333 -0.8962 -1.6536 -0.6841
18942THY    CP364014   8.900   0.699   5.373  0.1247  0.2099 -0.6342
18942THY    HP564015   8.821   0.677   5.446  0.4957  0.9002  0.2754
18942THY    HP664016   8.849   0.724   5.279  1.4737 -1.3013 -3.1745
18942THY    HP764017   8.961   0.784   5.403 -2.3479 -1.5655  1.9461
18942THY    CA364018   9.083   0.557   5.107  0.4073 -0.4027 -0.9306
18942THY    HA364019   8.996   0.495   5.087 -1.5093  0.7711  1.1934
18942THY    CA464020   9.185   0.582   5.013  0.2127 -0.0793  0.3333
18942THY    HA464021   9.186   0.545   4.911  2.5413 -0.5049  1.4377
18942THY    CA564022   9.298   0.660   5.049 -0.3778  0.4050  0.6181
18942THY    CM164023   9.414   0.675   4.960 -0.1755 -0.4586 -0.0168
18942THY    HM164024   9.446   0.780   4.958 -1.5589 -1.5241  0.4156
18942THY    HM264025   9.392   0.645   4.857 -2.0964  0.4734 -2.0266
18942THY    HM364026   9.500   0.614   4.990 -0.5244 -2.8509 -1.8573
18942THY    CA664027   9.308   0.710   5.176  0.1359  0.5370 -0.2475
18942THY    HA664028   9.404   0.755   5.202  0.2256 -0.7276  0.3320
18943THY      O64029   4.112   2.588   7.166  0.2534  0.0691 -0.6170
18943THY     HO64030   4.064   2.575   7.083 -1.2119  0.6715  0.6748
18943THY    CA164031   4.180   2.471   7.196 -0.5985 -0.1147  0.5404
18943THY    CA264032   4.281   2.471   7.295  0.3829  0.6917  0.3845
18943THY    CP164033   4.330   2.601   7.358  0.4407 -0.1489  0.0258
18943THY    HP164034   4.252   2.675   7.333  0.8482 -1.0831  0.1526
18943THY    CP264035   4.463   2.653   7.277 -0.0463  0.5515 -0.5957
18943THY    HP264036   4.540   2.575   7.282  0.6530  0.2345  0.0656
18943THY    HP364037   4.505   2.741   7.327 -2.9795 -0.3010  1.4184
18943THY    HP464038   4.442   2.668   7.171 -1.3500  0.9105  0.2022
18943THY    CP364039   4.355   2.599   7.513 -0.0565  0.6915  0.4049
18943THY    HP564040   4.390   2.698   7.545  1.2989 -0.1314  0.2136
18943THY    HP664041   4.419   2.517   7.548 -0.3840  0.7025  0.1491
18943THY    HP764042   4.257   2.589   7.562  0.2777  1.3778  0.4851
18943THY    CA364043   4.336   2.342   7.322 -0.4113  0.4033 -0.5154
18943THY    HA364044   4.426   2.335   7.383 -0.8907  0.9104 -2.8095
18943THY    CA464045   4.296   2.230   7.252 -0.6057 -0.6528 -0.5917
18943THY    HA464046   4.356   2.142   7.273  0.3359  1.9622  0.5703
18943THY    CA564047   4.210   2.236   7.143 -0.7932 -0.5590  0.0118
18943THY    CM164048   4.179   2.111   7.065  0.5380  0.3990  0.0583
18943THY    HM164049   4.105   2.051   7.118  0.7068  0.0683 -0.4454
18943THY    HM264050   4.264   2.046   7.038  0.7085 -2.1435  1.2302
18943THY    HM364051   4.135   2.132   6.967  1.0896 -0.6591 -3.2027
18943THY    CA664052   4.137   2.357   7.124 -0.4017 -0.4651  0.8649
18943THY    HA664053   4.053   2.367   7.056 -1.8050  1.2471  1.0855
18944THY      O64054   8.818   2.603   1.738 -0.1940  0.6315  0.4394
18944THY     HO64055   8.721   2.605   1.740 -0.2432 -1.2354  1.8948
18944THY    CA164056   8.859   2.492   1.812 -0.4271 -0.5784 -0.7879
18944THY    CA264057   9.000   2.459   1.836 -0.5440 -0.0070  0.2483
18944THY    CP164058   9.113   2.536   1.767  0.2478  0.2040 -0.3738
18944THY    HP164059   9.082   2.641   1.763  2.0049  1.1240  0.2301
18944THY    CP264060   9.132   2.490   1.626  0.6665 -0.8661 -0.0853
18944THY    HP264061   9.060   2.541   1.561 -0.9994  1.2431  0.4022
18944THY    HP364062   9.122   2.381   1.626  1.8548  2.3305 -0.3084
18944THY    HP464063   9.232   2.512   1.588  0.7872 -0.3561  0.2459
18944THY    CP364064   9.240   2.541   1.850 -0.5421 -0.0181 -1.0337
18944THY    HP564065   9.308   2.606   1.793 -0.1573  0.3652 -1.1001
18944THY    HP664066   9.274   2.440   1.872 -0.5315 -0.8934 -1.2314
18944THY    HP764067   9.226   2.592   1.946 -1.3512  0.3284 -1.8763
18944THY    CA364068   9.023   2.348   1.918 -0.4528  0.5317 -0.0950
18944THY    HA364069   9.126   2.318   1.936 -0.0341  0.9317  1.4889
18944THY    CA464070   8.918   2.277   1.972  0.0139  0.7877  0.7132
18944THY    HA464071   8.945   2.196   2.039 -4.5623 -0.2812 -2.0453
18944THY    CA564072   8.791   2.308   1.946  0.0750  0.0509 -0.2148
18944THY    CM164073   8.682   2.229   2.013 -0.5267  0.0662  0.6524
18944THY    HM164074   8.686   2.228   2.123 -1.0771  0.0966  1.1934
18944THY    HM264075   8.698   2.125   1.983 -0.3942 -2.6225  1.3831
18944THY    HM364076   8.583   2.261   1.978 -0.0649 -2.9290 -0.8730
18944THY    CA664077   8.762   2.417   1.872 -0.6916 -0.8820 -0.2926
18944THY    HA664078   8.657   2.439   1.858 -2.0963  2.3561 -3.7448
18945THY      O64079   8.121   3.355   2.689 -0.3042  0.2726 -0.1840
18945THY     HO64080   8.113   3.288   2.618 -3.7562  1.0934 -0.8319
18945THY    CA164081   8.251   3.355   2.739  0.3900 -0.6893 -0.1362
18945THY    CA264082   8.297   3.434   2.848 -0.0737 -0.5139  0.4816
18945THY    CP164083   8.197   3.533   2.910 -0.7595 -0.6191  0.6346
18945THY    HP164084   8.099   3.533   2.860 -1.5930  0.8970 -0.7348
18945THY    CP264085   8.256   3.678   2.910  0.2454 -0.5205  0.4017
18945THY    HP264086   8.345   3.687   2.973  0.2497 -0.7123  1.9199
18945THY    HP364087   8.178   3.748   2.943 -1.4386 -1.7124 -0.8320
18945THY    HP464088   8.286   3.703   2.807  2.5653  0.1159  0.4920
18945THY    CP364089   8.178   3.494   3.056  0.7039  0.3832 -0.2335
18945THY    HP564090   8.142   3.391   3.069 -0.4629  0.0251  0.1119
18945THY    HP664091   8.101   3.553   3.107  0.0104  1.3939 -1.9318
18945THY    HP764092   8.265   3.514   3.120  0.2581  1.0524 -0.3846
18945THY    CA364093   8.420   3.415   2.899 -0.2842  0.1510 -0.0773
18945THY    HA364094   8.454   3.473   2.985  1.1731  0.6578 -1.6292
18945THY    CA464095   8.501   3.315   2.846 -0.5930  0.2842  0.1623
18945THY    HA464096   8.596   3.294   2.894 -0.3343  0.8296  2.3225
18945THY    CA564097   8.460   3.234   2.739  0.6812 -0.2245 -0.1320
18945THY    CM164098   8.550   3.118   2.715  0.1303 -0.0481 -0.4703
18945THY    HM164099   8.500   3.039   2.658  3.7508  0.5390 -3.4589
18945THY    HM264100   8.601   3.083   2.805  0.7571 -0.0419  0.4080
18945THY    HM364101   8.637   3.147   2.655  1.5289  1.5322 -1.2241
18945THY    CA664102   8.333   3.254   2.687  0.8352 -0.5288  0.0419
18945THY    HA664103   8.295   3.192   2.607 -1.2397  0.7027 -0.3700
18946THY      O64104   5.561   8.100   4.630  0.3274 -0.1511  0.2126
18946THY     HO64105   5.516   8.039   4.569  0.2646 -2.4350  2.3805
18946THY    CA164106   5.693   8.097   4.610  0.1704  0.3491  1.4951
18946THY    CA264107   5.782   8.127   4.711 -0.1484 -0.2482  0.2210
18946THY    CP164108   5.727   8.191   4.835 -0.0846  0.4198 -0.0766
18946THY    HP164109   5.621   8.218   4.829  0.1375 -3.4370  0.4680
18946THY    CP264110   5.797   8.323   4.877 -0.9211 -0.6548 -0.0304
18946THY    HP264111   5.750   8.408   4.826 -2.5270  2.2038  0.9601
18946THY    HP364112   5.906   8.327   4.876 -0.8301  2.5910  1.1251
18946THY    HP464113   5.773   8.349   4.981 -1.7612 -1.6021  3.5235
18946THY    CP364114   5.732   8.086   4.945  0.5661 -0.2323  0.2867
18946THY    HP564115   5.688   8.129   5.036 -0.4681 -1.3669  1.7223
18946THY    HP664116   5.836   8.061   4.970  1.0148  0.0627  2.2687
18946THY    HP764117   5.675   7.997   4.915  0.5471  1.8757 -0.4673
18946THY    CA364118   5.925   8.106   4.691  0.2635 -0.1184  0.3298
18946THY    HA364119   5.994   8.140   4.768 -1.6718  1.1565  1.5837
18946THY    CA464120   5.964   8.046   4.568 -0.2176 -1.2910 -0.0442
18946THY    HA464121   6.071   8.040   4.548 -0.1183 -0.9071  0.3673
18946THY    CA564122   5.873   8.029   4.466 -0.8991  0.2305  0.7455
18946THY    CM164123   5.929   7.981   4.333  0.6075 -0.0178  0.9362
18946THY    HM164124   5.854   7.929   4.273 -1.4121  1.5050  1.9455
18946THY    HM264125   6.007   7.910   4.364 -0.0871 -0.4767 -0.0439
18946THY    HM364126   5.978   8.065   4.283 -1.3075 -2.0060  0.9508
18946THY    CA664127   5.736   8.034   4.492  0.2787  0.2388  0.0442
18946THY    HA664128   5.665   8.009   4.414  0.4959  0.6276 -1.9086
18947THY      O64129   3.113   6.399   7.413  0.3247  0.3027 -0.4470
18947THY     HO64130   3.169   6.474   7.440  1.1542 -0.0401 -0.9234
18947THY    CA164131   3.120   6.297   7.498  0.3415  0.1633  0.3457
18947THY    CA264132   3.031   6.187   7.488 -0.1944 -0.3943 -0.3972
18947THY    CP164133   2.922   6.183   7.376 -0.4063  0.2793 -0.5775
18947THY    HP164134   2.953   6.235   7.285 -1.3367 -0.1525 -0.7615
18947THY    CP264135   2.808   6.263   7.428 -0.1886  0.1275 -0.1658
18947THY    HP264136   2.851   6.354   7.471  0.9508 -0.4684 -0.4025
18947THY    HP364137   2.749   6.211   7.503 -0.0744 -1.3708 -2.5951
18947THY    HP464138   2.737   6.283   7.347 -0.7247  0.8007  0.6977
18947THY    CP364139   2.885   6.047   7.314  0.2546 -0.0624 -0.2962
18947THY    HP564140   2.794   6.051   7.253 -0.1609  0.5890  0.4810
18947THY    HP664141   2.863   5.966   7.384 -1.1935  1.3582  1.2362
18947THY    HP764142   2.970   6.011   7.256 -0.2572 -1.0374  0.0300
18947THY    CA364143   3.050   6.084   7.578 -0.0320 -0.2753  0.2190
18947THY    HA364144   2.972   6.008   7.582 -0.1249 -0.8871  0.2729
18947THY    CA464145   3.158   6.082   7.664 -0.5865 -0.8915 -0.2639
18947THY    HA464146   3.178   6.003   7.737  1.5357 -1.9899 -0.8284
18947THY    CA564147   3.248   6.191   7.670  0.7676 -0.4727  0.1867
18947THY    CM164148   3.359   6.199   7.766 -0.1052  0.0740  0.3252
18947THY    HM164149   3.453   6.205   7.710 -0.8410 -1.1405  1.0084
18947THY    HM264150   3.380   6.114   7.831  5.5838 -2.0892 -0.3839
18947THY    HM364151   3.349   6.291   7.825 -3.4702  1.4397 -0.7479
18947THY    CA664152   3.226   6.299   7.584 -0.4247 -0.5806 -0.6961
18947THY    HA664153   3.295   6.383   7.580  0.2150 -0.2141 -1.1912
18948THY      O64154   8.791   7.127   3.199  0.2037 -0.3821  0.5574
18948THY     HO64155   8.870   7.145   3.252  0.2098 -1.0941  2.9663
18948THY    CA164156   8.687   7.148   3.283  0.4910 -0.6879 -0.3250
18948THY    CA264157   8.564   7.192   3.239  0.5836  0.3950 -0.1419
18948THY    CP164158   8.538   7.223   3.086  0.5628 -0.6482 -0.1405
18948THY    HP164159   8.601   7.160   3.023 -0.1196 -0.0168 -1.4841
18948THY    CP264160   8.578   7.371   3.069 -0.1674  0.4743  0.2946
18948THY    HP264161   8.548   7.441   3.147  1.5365  0.0968  1.5177
18948THY    HP364162   8.540   7.406   2.973 -1.0180 -0.9607 -3.9449
18948THY    HP464163   8.687   7.370   3.058 -0.1158  0.7796  1.5906
18948THY    CP364164   8.391   7.200   3.048  1.0337 -0.5436 -0.5830
18948THY    HP564165   8.332   7.277   3.098  2.0097 -0.3669  0.0625
18948THY    HP664166   8.353   7.104   3.085 -1.7028  2.1070  1.3668
18948THY    HP764167   8.380   7.210   2.939 -0.0870 -0.5558 -1.6646
18948THY    CA364168   8.465   7.226   3.335 -0.8103  0.3113  0.1606
18948THY    HA364169   8.362   7.246   3.305 -0.7011 -1.2019 -1.2682
18948THY    CA464170   8.492   7.208   3.472 -0.0913  0.3233  0.1049
18948THY    HA464171   8.405   7.224   3.535 -0.8593 -0.7968  0.4989
18948THY    CA564172   8.613   7.157   3.516  0.4815 -0.4412  0.0125
18948THY    CM164173   8.639   7.129   3.660 -0.5354 -0.5972  0.6974
18948THY    HM164174   8.711   7.201   3.701 -0.7181 -0.8632  1.0388
18948THY    HM264175   8.679   7.028   3.661 -1.8878 -1.2542  0.1293
18948THY    HM364176   8.551   7.133   3.726 -0.7577 -0.6871 -1.6875
18948THY    CA664177   8.709   7.130   3.423 -0.4322  0.6262  0.1663
18948THY    HA664178   8.808   7.098   3.453  0.5573  1.2247  3.3619
18949THY      O64179   7.421   4.440   3.357  0.8331  1.1347 -0.7875
18949THY     HO64180   7.369   4.412   3.280  1.7268  0.4215 -0.5477
18949THY    CA164181   7.343   4.504   3.443  0.4998 -0.2977 -0.6975
18949THY    CA264182   7.379   4.582   3.559  0.5733  0.7683  1.0488
18949THY    CP164183   7.531   4.586   3.584 -0.0738  0.6855  0.4557
18949THY    HP164184   7.585   4.495   3.554 -1.5787 -0.0212 -0.2289
18949THY    CP264185   7.552   4.610   3.735 -0.6260  0.0303 -0.4435
18949THY    HP264186   7.525   4.715   3.749 -1.7966 -1.3295 -0.5386
18949THY    HP364187   7.653   4.591   3.772  0.0748  0.1232  2.8809
18949THY    HP464188   7.490   4.541   3.794 -0.1391  1.1677  0.0688
18949THY    CP364189   7.607   4.696   3.511  0.2844  0.2653  0.3765
18949THY    HP564190   7.579   4.703   3.405 -1.6249  0.7344  0.5006
18949THY    HP664191   7.715   4.676   3.511 -0.0753  0.3589 -1.8037
18949THY    HP764192   7.588   4.792   3.559  0.2984  1.2445 -0.0981
18949THY    CA364193   7.280   4.659   3.623  0.7719 -0.1828  0.8731
18949THY    HA364194   7.304   4.732   3.700 -0.6719 -0.4408  1.6591
18949THY    CA464195   7.147   4.634   3.583  0.7263  0.0214 -0.2146
18949THY    HA464196   7.071   4.697   3.629  0.7834 -1.0638  0.6771
18949THY    CA564197   7.110   4.554   3.476 -0.4430 -0.5587 -0.5975
18949THY    CM164198   6.965   4.537   3.434  0.0532 -0.5456 -0.9773
18949THY    HM164199   6.936   4.620   3.368  0.1480  0.0291 -0.4796
18949THY    HM264200   6.897   4.568   3.514  0.0892 -1.2674  1.1954
18949THY    HM364201   6.941   4.441   3.388  2.1706  1.2200 -2.4625
18949THY    CA664202   7.210   4.494   3.405 -0.3685  1.0160  0.1937
18949THY    HA664203   7.178   4.424   3.328  0.5530 -0.2816  1.1589
18950THY      O64204   4.446   7.525   6.737 -0.0867  0.0319 -0.3742
18950THY     HO64205   4.445   7.467   6.659  0.4325 -2.0439  2.1809
18950THY    CA164206   4.337   7.495   6.807 -0.0786 -0.1301  0.0258
18950THY    CA264207   4.329   7.510   6.952 -0.2075 -0.3925  0.6573
18950THY    CP164208   4.440   7.585   7.013  0.2005 -0.9048  0.8541
18950THY    HP164209   4.537   7.557   6.972  0.5081  1.5669 -2.2875
18950THY    CP264210   4.455   7.538   7.165  0.0034 -0.3521  0.4281
18950THY    HP264211   4.552   7.542   7.215  1.4326 -2.9139 -0.3784
18950THY    HP364212   4.433   7.430   7.164  0.8177  2.4906  0.1364
18950THY    HP464213   4.391   7.592   7.236  1.1355  2.0015 -1.1280
18950THY    CP364214   4.413   7.736   7.004 -0.2155  0.4263 -0.6181
18950THY    HP564215   4.443   7.774   6.906  0.3752  0.6265 -0.5619
18950THY    HP664216   4.484   7.794   7.065  0.0337  0.7557 -1.2527
18950THY    HP764217   4.308   7.761   7.026 -0.6157 -0.6591 -1.3032
18950THY    CA364218   4.207   7.462   7.019 -0.4973 -0.0895 -0.6364
18950THY    HA364219   4.192   7.475   7.125  0.1071  0.2898 -2.6226
18950THY    CA464220   4.112   7.395   6.944  0.3126  0.1736  0.2944
18950THY    HA464221   4.021   7.362   6.994  0.7760  0.2846 -0.8862
18950THY    CA564222   4.121   7.385   6.809  0.3733 -0.7948  0.2114
18950THY    CM164223   4.018   7.306   6.737  0.1398 -0.2014  0.3426
18950THY    HM164224   3.947   7.263   6.809 -0.6538  0.7457  3.0675
18950THY    HM264225   4.065   7.229   6.674 -1.4191 -0.3553 -0.5281
18950THY    HM364226   3.957   7.375   6.678 -0.4716  0.5098  0.4298
18950THY    CA664227   4.229   7.437   6.737 -0.2147 -0.2568 -0.1310
18950THY    HA664228   4.237   7.421   6.630  0.7691 -0.1613 -0.3664
18951THY      O64229   4.582   6.917   4.400 -0.9156  0.5689 -0.1220
18951THY     HO64230   4.644   6.858   4.445 -1.3495  1.6682  0.2290
18951THY    CA164231   4.636   6.942   4.276 -0.5372  0.3672 -0.0739
18951THY    CA264232   4.567   6.993   4.174 -0.2619 -0.3229  0.4090
18951THY    CP164233   4.426   7.045   4.192 -0.3484  0.3685 -0.6485
18951THY    HP164234   4.398   7.051   4.298  0.3431  0.4740  3.0374
18951THY    CP264235   4.324   6.960   4.109 -0.0460 -0.7883  0.4354
18951THY    HP264236   4.345   6.982   4.004 -1.7201 -1.3150 -0.3641
18951THY    HP364237   4.217   6.982   4.114 -0.3821 -3.5392 -0.2597
18951THY    HP464238   4.342   6.853   4.128 -0.1867 -0.9168  0.3887
18951THY    CP364239   4.432   7.195   4.148 -0.2973 -0.3310 -0.5229
18951THY    HP564240   4.327   7.227   4.156  0.1034  3.3108  0.3327
18951THY    HP664241   4.463   7.203   4.043 -1.9454 -0.7384  1.4069
18951THY    HP764242   4.498   7.257   4.209 -0.7967  0.1400 -0.4448
18951THY    CA364243   4.629   6.989   4.045 -0.8889 -0.1506  0.7006
18951THY    HA364244   4.575   7.016   3.955 -1.1873 -0.8979 -2.0348
18951THY    CA464245   4.759   6.928   4.032  0.3905  0.0751  0.3528
18951THY    HA464246   4.805   6.915   3.935  1.1344  0.4945 -0.1815
18951THY    CA564247   4.827   6.879   4.141  0.0856 -0.4087  0.0830
18951THY    CM164248   4.971   6.838   4.134 -0.5927  0.4216 -0.2564
18951THY    HM164249   4.995   6.752   4.197  0.1821 -0.2060 -0.5068
18951THY    HM264250   5.031   6.925   4.164 -0.1125  2.0160 -1.1060
18951THY    HM364251   4.999   6.807   4.033 -1.3546  0.7944 -2.3242
18951THY    CA664252   4.766   6.891   4.269 -0.2106 -0.5469 -0.6531
18951THY    HA664253   4.820   6.869   4.361  1.0259 -0.7365  1.3342
18952THY      O64254   2.166   4.409   7.065  0.1630  0.4436  0.0136
18952THY     HO64255   2.259   4.387   7.084  0.5082  0.7457  1.6334
18952THY    CA164256   2.128   4.342   6.958 -0.5754 -0.2196  0.3958
18952THY    CA264257   1.993   4.308   6.939  0.8890 -0.0113 -0.4290
18952THY    CP164258   1.882   4.358   7.030 -0.0603 -0.1566  0.2973
18952THY    HP164259   1.932   4.417   7.108  0.6346 -0.0538 -0.4188
18952THY    CP264260   1.810   4.239   7.097 -0.6286 -0.1285  0.7263
18952THY    HP264261   1.895   4.173   7.122  1.7316 -2.0310  2.8121
18952THY    HP364262   1.754   4.176   7.027 -0.7455 -0.5784  1.3240
18952THY    HP464263   1.745   4.264   7.181  2.1755  2.6079 -0.5436
18952THY    CP364264   1.770   4.442   6.958 -0.3124  0.7100  1.0111
18952THY    HP564265   1.707   4.458   7.046 -2.1546  0.5121 -3.5857
18952THY    HP664266   1.701   4.389   6.892  2.7808 -1.1144 -1.0573
18952THY    HP764267   1.797   4.535   6.907 -1.7322 -3.9725 -0.8594
18952THY    CA364268   1.957   4.228   6.823 -0.5411 -0.2492  0.1601
18952THY    HA364269   1.854   4.200   6.803 -1.1571  2.9446 -0.1755
18952THY    CA464270   2.062   4.188   6.732  0.2013 -0.0846 -0.2487
18952THY    HA464271   2.039   4.122   6.649  1.4467  0.6856 -1.7330
18952THY    CA564272   2.195   4.223   6.755 -0.3339  0.0933 -0.6155
18952THY    CM164273   2.302   4.189   6.662 -0.3209 -0.1369  0.3481
18952THY    HM164274   2.363   4.110   6.707  0.1692 -0.1824  0.6942
18952THY    HM264275   2.356   4.283   6.645  1.1079  3.9410  0.4392
18952THY    HM364276   2.263   4.139   6.572  3.3205 -0.5604 -2.1061
18952THY    CA664277   2.228   4.291   6.877 -0.3971 -0.2168 -0.4391
18952THY    HA664278   2.330   4.318   6.900 -1.1183  0.0496  2.3819
18953THY      O64279   7.529   6.733   3.840 -0.2181  0.8134 -0.0855
18953THY     HO64280   7.475   6.811   3.863 -0.3746  0.4977 -0.0962
18953THY    CA164281   7.658   6.768   3.862 -0.1981  0.0228 -0.2021
18953THY    CA264282   7.771   6.686   3.825 -0.0547 -0.4936 -0.2220
18953THY    CP164283   7.754   6.555   3.755 -0.0246  0.1492 -0.3714
18953THY    HP164284   7.649   6.538   3.731  0.1152 -1.9481  1.3037
18953THY    CP264285   7.820   6.439   3.826 -0.1723  0.4448 -0.1216
18953THY    HP264286   7.815   6.443   3.936 -0.9100  0.4358 -0.5151
18953THY    HP364287   7.926   6.443   3.802 -0.1801  0.3097 -0.6662
18953THY    HP464288   7.768   6.349   3.792 -0.5121  1.1147 -0.1918
18953THY    CP364289   7.830   6.567   3.618 -0.7894  0.0826  0.4299
18953THY    HP564290   7.787   6.630   3.540 -0.3572 -2.5844 -2.3295
18953THY    HP664291   7.834   6.469   3.568 -0.5130  0.1330  0.4159
18953THY    HP764292   7.936   6.586   3.637 -0.5031  1.3705 -1.9694
18953THY    CA364293   7.894   6.723   3.883 -0.0386 -0.6956  0.5483
18953THY    HA364294   7.976   6.652   3.886 -0.5014  0.1609  0.0375
18953THY    CA464295   7.900   6.839   3.962  0.0237 -0.5340 -0.0173
18953THY    HA464296   7.998   6.859   4.004  0.4328 -1.9222  1.0372
18953THY    CA564297   7.790   6.923   3.991 -0.5824  0.0360  0.0128
18953THY    CM164298   7.801   7.042   4.086  0.2351 -0.2163  0.4043
18953THY    HM164299   7.739   7.126   4.053 -0.4733 -0.1143 -0.0758
18953THY    HM264300   7.905   7.075   4.101 -0.1651 -0.6701  1.9514
18953THY    HM364301   7.765   7.008   4.183  1.3740 -0.4960 -1.7688
18953THY    CA664302   7.667   6.885   3.932 -0.0184 -0.2766 -0.3945
18953THY    HA664303   7.578   6.943   3.956 -0.5825 -0.4909 -1.1414
18954THY      O64304   1.097   2.161   2.330 -0.2619  0.2112  0.5557
18954THY     HO64305   1.193   2.169   2.338  0.0397 -2.9230  1.1487
18954THY    CA164306   1.066   2.027   2.296  0.4748  0.4755 -0.3384
18954THY    CA264307   0.946   1.987   2.225 -0.5169  0.2776  0.0891
18954THY    CP164308   0.847   2.087   2.163 -0.3264 -0.4324 -0.3301
18954THY    HP164309   0.893   2.185   2.181  0.4969 -0.2422 -0.7463
18954THY    CP264310   0.714   2.094   2.240 -0.1439  0.0277 -0.0150
18954THY    HP264311   0.666   1.996   2.232 -1.1400  2.1214  0.2429
18954THY    HP364312   0.641   2.166   2.201  2.2029  0.7257  2.9482
18954THY    HP464313   0.715   2.127   2.344 -2.1426  0.3086 -0.6633
18954THY    CP364314   0.832   2.069   2.007 -0.1698  0.2433 -0.1388
18954THY    HP564315   0.772   1.979   1.987 -0.0403  0.0691 -0.1873
18954THY    HP664316   0.930   2.065   1.957 -0.0126  0.5116  0.2634
18954THY    HP764317   0.792   2.161   1.964  2.1820  2.2261  1.9856
18954THY    CA364318   0.926   1.846   2.207 -0.7211 -0.3954  0.2414
18954THY    HA364319   0.831   1.805   2.173 -0.8062  0.6278 -0.4386
18954THY    CA464320   1.014   1.752   2.267  0.6495 -0.2897 -0.0826
18954THY    HA464321   1.001   1.645   2.268  2.0193  0.3361 -0.2605
18954THY    CA564322   1.118   1.789   2.342  0.0946 -0.3482 -0.0446
18954THY    CM164323   1.204   1.683   2.410 -1.0774  0.0930 -0.0776
18954THY    HM164324   1.140   1.599   2.438  0.8488  0.4566 -1.4954
18954THY    HM264325   1.263   1.715   2.497  0.1947 -0.5331 -0.6521
18954THY    HM364326   1.281   1.651   2.339 -0.7482 -0.1579  1.2109
18954THY    CA664327   1.141   1.929   2.359  0.3667 -0.6934  0.0161
18954THY    HA664328   1.212   1.946   2.439 -1.7277  1.5565 -1.1675
18955THY      O64329   4.547   2.960   3.209 -0.2468  0.0135 -0.5974
18955THY     HO64330   4.549   2.967   3.306 -2.5416  0.0029  2.7464
18955THY    CA164331   4.423   2.918   3.174  0.3250  0.1510  0.0188
18955THY    CA264332   4.378   2.919   3.044 -0.0570 -0.0095  0.0192
18955THY    CP164333   4.460   2.967   2.924  0.1902 -0.0572 -0.1941
18955THY    HP164334   4.558   2.994   2.965  0.5253 -1.3490  0.6682
18955THY    CP264335   4.400   3.099   2.869  0.0818  0.1210  0.6519
18955THY    HP264336   4.452   3.136   2.779 -0.2813 -0.3029  0.1460
18955THY    HP364337   4.402   3.173   2.949 -0.3395  1.0061 -0.2749
18955THY    HP464338   4.298   3.071   2.841  0.4911 -0.5916 -0.1758
18955THY    CP364339   4.477   2.868   2.812  0.1340 -0.5500 -0.2436
18955THY    HP564340   4.560   2.911   2.755 -0.7192 -1.2251  0.5348
18955THY    HP664341   4.387   2.868   2.749 -1.3348  1.3862  2.0490
18955THY    HP764342   4.483   2.762   2.839 -1.4027 -1.5934 -0.6316
18955THY    CA364343   4.248   2.869   3.021  0.7254  1.0207  0.3264
18955THY    HA364344   4.204   2.868   2.922 -0.4470  1.5202 -0.7264
18955THY    CA464345   4.167   2.817   3.126 -0.4638 -0.5917  0.1896
18955THY    HA464346   4.066   2.784   3.105  0.2081 -3.6114 -0.2708
18955THY    CA564347   4.215   2.827   3.252 -0.2339 -0.6736 -0.9210
18955THY    CM164348   4.130   2.809   3.372  0.0783 -0.4673 -0.8435
18955THY    HM164349   4.029   2.780   3.339  0.2149 -2.1032  0.4364
18955THY    HM264350   4.134   2.894   3.441 -0.1000 -1.8876  0.3513
18955THY    HM364351   4.176   2.728   3.430 -0.6101  0.5760 -0.5143
18955THY    CA664352   4.346   2.879   3.276 -0.0403  1.1955  0.1968
18955THY    HA664353   4.381   2.868   3.378  0.5573  0.8534 -1.3572
18956THY      O64354   9.013   2.480   7.505  0.1146  0.0217  0.3218
18956THY     HO64355   9.048   2.526   7.582 -1.5148  1.8913 -1.3476
18956THY    CA164356   8.952   2.367   7.554 -0.4798 -0.1841  0.1496
18956THY    CA264357   8.918   2.259   7.462  0.4735 -0.0152 -0.5275
18956THY    CP164358   8.931   2.278   7.313 -0.5714  0.4004  0.0890
18956THY    HP164359   8.946   2.384   7.291  2.1174  0.8882 -0.1147
18956THY    CP264360   8.815   2.231   7.237  0.0573  0.5959  0.0488
18956THY    HP264361   8.733   2.285   7.286 -0.2906 -0.1064  0.1674
18956THY    HP364362   8.803   2.123   7.223  1.9285  0.9616 -0.2389
18956THY    HP464363   8.817   2.272   7.136  0.7494  0.5111 -0.1777
18956THY    CP364364   9.056   2.202   7.257  0.2611 -0.2828  0.5258
18956THY    HP564365   9.082   2.244   7.159 -0.5102 -0.7489 -0.0491
18956THY    HP664366   9.016   2.103   7.233 -3.3180  0.4971  1.6443
18956THY    HP764367   9.151   2.202   7.312  0.7146 -1.0311 -0.4169
18956THY    CA364368   8.854   2.148   7.516  0.3830  0.5966  0.7549
18956THY    HA364369   8.814   2.069   7.453  0.6912  0.6087  0.5895
18956THY    CA464370   8.827   2.142   7.654  0.0345 -0.0494 -0.0324
18956THY    HA464371   8.763   2.061   7.688 -2.8491 -0.4997  1.9252
18956THY    CA564372   8.860   2.249   7.745  0.3514  0.5706  0.0946
18956THY    CM164373   8.793   2.254   7.876  0.3886 -0.0059  0.4146
18956THY    HM164374   8.696   2.304   7.864 -0.2609 -1.0149 -1.0288
18956THY    HM264375   8.858   2.297   7.953  0.2180  1.2274 -1.4267
18956THY    HM364376   8.779   2.154   7.917 -3.3812  0.8831  1.1609
18956THY    CA664377   8.926   2.365   7.693  0.0433 -0.3648 -0.1645
18956THY    HA664378   8.954   2.454   7.748 -1.0715  0.5223 -0.3342
18957THY      O64379   8.434   3.142   5.189 -0.5028 -0.3840 -0.0135
18957THY     HO64380   8.357   3.115   5.137  1.1347 -1.2686 -3.5433
18957THY    CA164381   8.438   3.050   5.291  0.2433 -0.5044  0.5711
18957THY    CA264382   8.545   3.042   5.375 -0.4074 -0.6421 -0.6234
18957THY    CP164383   8.658   3.145   5.358  0.2052  0.3527 -0.1886
18957THY    HP164384   8.670   3.180   5.255  1.8699  0.0740 -1.4641
18957THY    CP264385   8.785   3.085   5.408 -0.0443 -0.3255 -0.0407
18957THY    HP264386   8.863   3.154   5.375  0.2917  0.4095 -0.0601
18957THY    HP364387   8.807   2.986   5.365 -0.6018  0.2729 -0.4313
18957THY    HP464388   8.799   3.081   5.517  0.8907 -0.3780  1.1107
18957THY    CP364389   8.644   3.272   5.442  0.2318  0.4694  0.4917
18957THY    HP564390   8.711   3.353   5.412  0.0357 -2.1671 -0.2422
18957THY    HP664391   8.659   3.253   5.549  1.9108  0.2191  0.2150
18957THY    HP764392   8.542   3.310   5.435  0.4440  3.0585  1.7440
18957THY    CA364393   8.543   2.952   5.488 -0.7786 -0.1719 -0.2198
18957THY    HA364394   8.630   2.956   5.554  0.1176 -1.3814  2.7272
18957THY    CA464395   8.440   2.859   5.500  0.2319  0.3075  0.1379
18957THY    HA464396   8.446   2.784   5.577  2.2119 -1.1690 -1.3274
18957THY    CA564397   8.333   2.866   5.413  0.0653  0.9095 -0.6229
18957THY    CM164398   8.208   2.784   5.426 -0.3096 -0.4346  0.2330
18957THY    HM164399   8.117   2.836   5.392 -0.2269 -1.4575 -0.2748
18957THY    HM264400   8.196   2.748   5.529 -0.0676 -0.7156 -0.6768
18957THY    HM364401   8.219   2.707   5.349  2.4330 -0.1584  0.2687
18957THY    CA664402   8.334   2.962   5.310  0.2395  0.7141  0.1368
18957THY    HA664403   8.250   2.971   5.242  1.7351 -0.8789  3.3316
18958THY      O64404   1.407   4.907   5.204 -0.1444 -0.2507  0.3903
18958THY     HO64405   1.486   4.943   5.160  1.7004  1.2885 -1.5674
18958THY    CA164406   1.299   4.976   5.174 -0.5508 -0.2009  0.6469
18958THY    CA264407   1.174   4.925   5.216 -0.2278  0.5082 -0.0542
18958THY    CP164408   1.166   4.793   5.289  0.0262  0.4826  0.1344
18958THY    HP164409   1.236   4.716   5.253 -1.0111  0.7629 -0.9704
18958THY    CP264410   1.029   4.717   5.273 -0.1047 -0.2302  0.1846
18958THY    HP264411   0.951   4.746   5.344 -0.9478 -0.9704 -0.2332
18958THY    HP364412   1.046   4.612   5.298  0.7287  0.7637  0.5399
18958THY    HP464413   0.999   4.724   5.168 -2.2475  0.2238 -1.2756
18958THY    CP364414   1.200   4.800   5.439  0.3290  0.9022  0.0826
18958THY    HP564415   1.198   4.698   5.479  2.0099  2.2861  0.5544
18958THY    HP664416   1.131   4.873   5.482  1.2223  0.9794  0.9072
18958THY    HP764417   1.303   4.827   5.464  1.4029 -2.5105 -0.3498
18958THY    CA364418   1.060   4.997   5.187 -0.6698 -0.5486 -0.8994
18958THY    HA364419   0.961   4.964   5.217 -0.9191  1.5510  1.5259
18958THY    CA464420   1.068   5.122   5.127 -0.2819 -0.1972 -0.1677
18958THY    HA464421   0.979   5.184   5.117 -0.4753  1.6540 -0.1045
18958THY    CA564422   1.190   5.165   5.075  0.3442 -0.3478 -0.4797
18958THY    CM164423   1.199   5.296   4.995  0.6610 -0.3401 -0.0779
18958THY    HM164424   1.143   5.379   5.040 -0.5893 -0.8900 -0.6083
18958THY    HM264425   1.161   5.284   4.893 -2.4780  0.3986  2.3550
18958THY    HM364426   1.305   5.324   4.990  0.9995 -0.9906 -1.3861
18958THY    CA664427   1.310   5.089   5.103  0.5703  0.0016  0.1891
18958THY    HA664428   1.410   5.124   5.076 -0.2752 -0.1983  2.6298
18959THY      O64429   8.786   4.916   5.748 -0.0223  0.2833  0.0927
18959THY     HO64430   8.880   4.935   5.767 -0.1753 -0.0600  1.2756
18959THY    CA164431   8.762   4.935   5.620 -0.0478  0.5833 -0.7843
18959THY    CA264432   8.629   4.944   5.574  0.5572  0.7049 -0.4985
18959THY    CP164433   8.514   4.949   5.682  0.2627  0.6056  0.8425
18959THY    HP164434   8.531   4.905   5.781 -1.8787  0.5928 -0.1491
18959THY    CP264435   8.385   4.878   5.634 -0.6565  0.3604  0.3270
18959THY    HP264436   8.339   4.933   5.551 -0.1787  0.2590  0.5802
18959THY    HP364437   8.316   4.885   5.719 -1.5318 -0.1397 -1.5518
18959THY    HP464438   8.393   4.769   5.625 -1.7544  0.1762  0.2468
18959THY    CP364439   8.481   5.093   5.723 -0.2922 -0.1051 -0.5413
18959THY    HP564440   8.552   5.146   5.788 -2.2837  0.2966  1.7976
18959THY    HP664441   8.392   5.092   5.785  0.6137  1.2953  0.9282
18959THY    HP764442   8.463   5.158   5.636 -3.8703  0.1327 -1.0260
18959THY    CA364443   8.607   4.951   5.434  0.6630 -0.1395 -0.2752
18959THY    HA364444   8.508   4.968   5.393  0.7845  0.0900  1.1403
18959THY    CA464445   8.711   4.958   5.346  0.2442 -0.1263  0.0126
18959THY    HA464446   8.693   4.969   5.239 -1.8591  0.3373  1.8286
18959THY    CA564447   8.842   4.946   5.395 -0.3435  0.3744  0.3614
18959THY    CM164448   8.957   4.945   5.292 -0.2781  0.1388  0.5406
18959THY    HM164449   8.917   4.915   5.195  1.2499 -0.1352 -0.8126
18959THY    HM264450   9.032   4.867   5.314 -1.0082 -1.2208 -0.5825
18959THY    HM364451   9.010   5.041   5.289  0.7531  2.2209  0.1008
18959THY    CA664452   8.872   4.930   5.532  0.6015 -0.5464 -0.5523
18959THY    HA664453   8.971   4.897   5.562  0.1991 -1.0736 -2.3318
18960THY      O64454   2.093   6.110   7.369 -0.0527  0.5995 -0.0546
18960THY     HO64455   2.001   6.142   7.377  0.0860 -2.3324  1.4715
18960THY    CA164456   2.105   6.079   7.236 -0.2282  0.1128 -0.0143
18960THY    CA264457   2.227   6.067   7.173  0.2853 -0.3359  0.8945
18960THY    CP164458   2.358   6.101   7.252 -0.2104 -0.2913 -0.4782
18960THY    HP164459   2.341   6.133   7.356 -0.1286 -0.8063  1.3483
18960THY    CP264460   2.427   6.224   7.185  0.9280  0.4342  0.2075
18960THY    HP264461   2.524   6.240   7.233  0.4873  0.9442  1.5678
18960THY    HP364462   2.355   6.305   7.201  0.7049  1.4027 -0.1695
18960THY    HP464463   2.441   6.209   7.078  1.0874  0.5358 -0.4121
18960THY    CP364464   2.457   5.978   7.253  0.3517 -0.2844 -0.1924
18960THY    HP564465   2.537   5.985   7.328 -0.3662  0.7341 -2.1385
18960THY    HP664466   2.508   5.948   7.161 -1.2574 -0.5729 -2.2446
18960THY    HP764467   2.389   5.898   7.286 -0.2866 -2.0765 -0.4363
18960THY    CA364468   2.224   6.025   7.036 -0.0474 -0.1546 -0.1141
18960THY    HA364469   2.319   6.023   6.984 -1.7385 -3.6166  0.5089
18960THY    CA464470   2.109   5.982   6.965  0.4003 -0.3895 -0.7021
18960THY    HA464471   2.110   5.941   6.864 -3.1020 -0.9127  0.1640
18960THY    CA564472   1.983   6.001   7.033  0.0005  0.2861 -0.0508
18960THY    CM164473   1.862   5.940   6.971 -0.4412  0.4717 -0.5470
18960THY    HM164474   1.769   5.980   7.012 -0.8419 -2.4330  1.8429
18960THY    HM264475   1.874   5.833   6.991 -2.1716 -0.9119 -1.0445
18960THY    HM364476   1.865   5.956   6.862  0.5424  0.5356 -0.2422
18960THY    CA664477   1.988   6.054   7.165  1.0090 -0.3792 -0.1572
18960THY    HA664478   1.891   6.060   7.213  0.7724 -0.5232 -2.1783
18961THY      O64479   8.876   5.396   5.857  0.5229  0.3942  0.0343
18961THY     HO64480   8.930   5.330   5.903  1.4633  1.0438  1.2055
18961THY    CA164481   8.839   5.481   5.951 -0.2141 -0.2468  0.0836
18961THY    CA264482   8.762   5.596   5.934 -0.6192  0.1294 -0.6596
18961THY    CP164483   8.714   5.628   5.785 -0.2183  0.1494 -0.1138
18961THY    HP164484   8.786   5.584   5.715 -0.0557  0.2431  0.0052
18961THY    CP264485   8.712   5.782   5.773  0.3734  0.6291  0.2138
18961THY    HP264486   8.813   5.808   5.807  1.5770 -1.9748 -0.7320
18961THY    HP364487   8.631   5.828   5.832 -1.5457 -0.8628 -1.0762
18961THY    HP464488   8.709   5.820   5.670  1.9286  0.5966  0.2967
18961THY    CP364489   8.580   5.565   5.745 -0.1684 -0.4765  0.0073
18961THY    HP564490   8.508   5.617   5.809  1.0149 -0.6990  2.0575
18961THY    HP664491   8.578   5.456   5.743  1.9699 -0.8368 -0.0744
18961THY    HP764492   8.561   5.593   5.640  0.7839 -0.9563 -1.0893
18961THY    CA364493   8.738   5.684   6.047  0.3249  0.3239  0.1660
18961THY    HA364494   8.688   5.779   6.033  1.3482  0.6038  0.7662
18961THY    CA464495   8.773   5.639   6.171 -0.8072 -0.5761 -0.2602
18961THY    HA464496   8.748   5.697   6.259 -2.3030  0.3321 -2.1577
18961THY    CA564497   8.855   5.527   6.189 -0.1638  0.4738 -0.6091
18961THY    CM164498   8.907   5.498   6.331 -0.0789 -0.1132 -0.9221
18961THY    HM164499   8.994   5.563   6.344 -1.4466 -2.7807  1.7029
18961THY    HM264500   8.938   5.394   6.347  0.5001  1.5422 -0.5166
18961THY    HM364501   8.829   5.498   6.408  0.5608  0.5986 -2.8269
18961THY    CA664502   8.886   5.450   6.081  0.3386  0.4033 -0.1905
18961THY    HA664503   8.951   5.363   6.082  0.2487  0.6111 -0.2573
18962THY      O64504   4.389   6.190   5.042  0.4380 -0.2139 -0.5887
18962THY     HO64505   4.480   6.223   5.053 -0.0168 -0.2443  0.7234
18962THY    CA164506   4.374   6.066   5.099 -0.5716 -0.1106 -0.1403
18962THY    CA264507   4.263   5.982   5.072  0.0782 -0.3111 -0.2331
18962THY    CP164508   4.153   6.031   4.981 -0.9109 -0.5869 -0.3373
18962THY    HP164509   4.136   6.139   4.986  3.4831 -1.7782  0.6006
18962THY    CP264510   4.012   5.969   5.012 -0.1824  0.3064  0.3504
18962THY    HP264511   3.931   6.018   4.958  1.9187 -3.2947  0.1616
18962THY    HP364512   3.991   5.957   5.119 -1.5158  0.3163  2.3060
18962THY    HP464513   4.013   5.867   4.973  0.5735 -3.0181  1.5088
18962THY    CP364514   4.192   5.994   4.843  0.1561 -0.1313  0.4522
18962THY    HP564515   4.109   6.018   4.775 -0.1902  0.0468 -0.2383
18962THY    HP664516   4.215   5.888   4.825  0.7048 -0.7206  0.6629
18962THY    HP764517   4.284   6.041   4.806 -0.3431 -0.5690  1.1077
18962THY    CA364518   4.251   5.859   5.139  0.4079  0.0964  0.2451
18962THY    HA364519   4.173   5.788   5.115 -0.7410 -0.2525  1.5767
18962THY    CA464520   4.344   5.829   5.238 -0.1943  0.2303  0.0830
18962THY    HA464521   4.322   5.743   5.302  0.0592  1.6249  1.0228
18962THY    CA564522   4.457   5.913   5.260  0.1003  0.1278  1.2723
18962THY    CM164523   4.553   5.874   5.368 -0.7343  0.0303 -0.2342
18962THY    HM164524   4.517   5.785   5.421 -0.0337  2.2218  0.7129
18962THY    HM264525   4.563   5.951   5.445  2.5196 -1.1523  0.7317
18962THY    HM364526   4.654   5.874   5.324 -1.4728 -1.7295 -0.6621
18962THY    CA664527   4.474   6.024   5.185  0.1543 -0.2046  0.1778
18962THY    HA664528   4.561   6.085   5.209  0.2170  1.0317 -0.3792
18963THY      O64529   8.096   4.735   2.867  0.5282 -0.4447 -0.5689
18963THY     HO64530   8.139   4.692   2.792  2.6823  1.2025 -1.4568
18963THY    CA164531   8.098   4.863   2.833 -0.7312 -0.6716 -0.7388
18963THY    CA264532   8.108   4.962   2.930  0.6245  0.2681  0.1973
18963THY    CP164533   8.113   4.927   3.080  0.0373  0.0942  0.8451
18963THY    HP164534   8.076   4.824   3.092  1.1394  1.1842  0.5521
18963THY    CP264535   8.032   5.014   3.175 -0.2376 -0.3104 -0.3150
18963THY    HP264536   8.026   4.973   3.277 -3.4993 -0.6738 -1.0986
18963THY    HP364537   7.925   5.021   3.148 -0.6497  1.4057  0.5336
18963THY    HP464538   8.082   5.111   3.181 -1.7658 -0.5858  0.5279
18963THY    CP364539   8.261   4.928   3.121  0.1668 -0.5072  0.6458
18963THY    HP564540   8.311   4.854   3.058 -0.5151 -0.0817 -0.1936
18963THY    HP664541   8.269   4.908   3.229 -1.8841 -0.4497 -0.0601
18963THY    HP764542   8.303   5.027   3.098  0.5775  0.4225  0.7073
18963THY    CA364543   8.116   5.097   2.880 -0.0711  0.7355  0.0824
18963THY    HA364544   8.134   5.170   2.958 -0.5640 -0.8212  1.9696
18963THY    CA464545   8.105   5.128   2.744  0.5572  0.0714 -0.1106
18963THY    HA464546   8.104   5.229   2.706 -0.5486 -3.0275 -1.1613
18963THY    CA564547   8.091   5.028   2.646  0.0581 -0.4171 -0.6538
18963THY    CM164548   8.086   5.052   2.506 -0.2028  0.6962 -0.2778
18963THY    HM164549   8.052   4.969   2.443  0.1974  1.7686 -1.2787
18963THY    HM264550   8.189   5.077   2.480  0.0048  0.1783 -1.5819
18963THY    HM364551   8.019   5.137   2.485 -0.6984 -1.6262 -1.1707
18963THY    CA664552   8.086   4.894   2.696 -0.1827  0.3630 -0.4646
18963THY    HA664553   8.069   4.810   2.629  0.0354  1.2534 -1.2310
18964THY      O64554   5.070   1.605   5.860 -0.2624 -0.6338 -0.3016
18964THY     HO64555   5.009   1.679   5.875  0.4273  2.1612 -0.1792
18964THY    CA164556   5.027   1.504   5.939 -0.5752  0.8088  0.2920
18964THY    CA264557   5.096   1.377   5.941 -0.1566 -0.4421 -0.1545
18964THY    CP164558   5.206   1.345   5.833  0.3642  0.0129 -0.1817
18964THY    HP164559   5.240   1.440   5.788  0.7683  1.4275  0.3786
18964THY    CP264560   5.140   1.252   5.725 -0.4622  0.0172 -0.8616
18964THY    HP264561   5.212   1.221   5.647  2.9838  3.2427 -1.7311
18964THY    HP364562   5.047   1.295   5.688 -0.7143  2.0101  0.4162
18964THY    HP464563   5.116   1.160   5.780 -0.6213 -0.3812 -1.0596
18964THY    CP364564   5.324   1.276   5.885 -0.2388  0.8714  0.3449
18964THY    HP564565   5.388   1.257   5.798 -1.0940  0.3524 -0.2052
18964THY    HP664566   5.298   1.179   5.928 -1.0954  0.4280  0.3758
18964THY    HP764567   5.392   1.329   5.953  0.7480  0.7245 -0.6806
18964THY    CA364568   5.038   1.275   6.021 -0.0144  0.6445  0.0091
18964THY    HA364569   5.073   1.173   6.008  2.5429  0.6314  0.8002
18964THY    CA464570   4.932   1.306   6.112  0.3742  0.1316 -0.3912
18964THY    HA464571   4.885   1.222   6.162 -1.9465 -3.1563 -1.2696
18964THY    CA564572   4.889   1.438   6.125 -0.1315 -0.0269  0.2509
18964THY    CM164573   4.772   1.473   6.212 -0.3445 -0.2848 -0.8419
18964THY    HM164574   4.725   1.570   6.191  0.1498  0.9617 -0.3055
18964THY    HM264575   4.793   1.474   6.320 -1.2836 -0.0925 -0.9056
18964THY    HM364576   4.677   1.424   6.191 -0.3058 -0.4502 -0.8488
18964THY    CA664577   4.931   1.530   6.031  1.2403 -0.5993  0.3341
18964THY    HA664578   4.885   1.628   6.038 -2.8872  0.1996 -1.4468
18965THY      O64579   8.640   7.835   4.268 -0.1074  0.7846 -0.4646
18965THY     HO64580   8.658   7.808   4.360  0.8544  0.1733 -2.0729
18965THY    CA164581   8.752   7.824   4.191 -0.3159  0.9633  0.1684
18965THY    CA264582   8.787   7.922   4.097  0.0720  0.5309 -0.1534
18965THY    CP164583   8.699   8.038   4.060 -0.2100 -0.2286 -0.0370
18965THY    HP164584   8.604   8.039   4.115  0.7116  1.4912 -1.4044
18965THY    CP264585   8.671   8.038   3.908  0.6342  0.0973  0.0925
18965THY    HP264586   8.610   7.948   3.894  1.5865 -0.0364 -0.5397
18965THY    HP364587   8.750   8.030   3.833  0.5600 -0.3835  2.9282
18965THY    HP464588   8.605   8.117   3.868 -1.4195 -0.8667 -1.9945
18965THY    CP364589   8.762   8.167   4.099  0.5022  0.5837  0.1555
18965THY    HP564590   8.769   8.179   4.208  2.4538  0.6564 -1.1633
18965THY    HP664591   8.696   8.246   4.061  1.8337 -1.3641  0.4067
18965THY    HP764592   8.856   8.188   4.046 -0.3520 -1.5568 -1.1197
18965THY    CA364593   8.903   7.909   4.022 -0.4848  0.3954 -0.2893
18965THY    HA364594   8.929   7.992   3.957  1.0731  1.9400  0.4979
18965THY    CA464595   8.980   7.790   4.047 -0.1799  0.2529  0.3350
18965THY    HA464596   9.075   7.775   3.998 -0.1144  0.5105 -0.1128
18965THY    CA564597   8.942   7.695   4.136  0.1549  0.4421  0.0086
18965THY    CM164598   9.035   7.581   4.162  0.6839  0.1655 -0.2308
18965THY    HM164599   9.139   7.589   4.127  0.3851 -0.4913  1.1338
18965THY    HM264600   8.997   7.495   4.105 -1.0390  1.7581 -0.5846
18965THY    HM364601   9.009   7.542   4.260 -2.5278 -0.4016  0.1940
18965THY    CA664602   8.827   7.708   4.208 -0.0052  0.0768 -0.6256
18965THY    HA664603   8.785   7.631   4.271 -0.4005  0.9198  0.2522
18966THY      O64604   6.928   9.098   2.317 -0.0558 -0.1302 -0.6817
18966THY     HO64605   6.852   9.157   2.332 -0.2605  0.0533 -0.9862
18966THY    CA164606   6.997   9.155   2.217 -0.2567 -0.1657 -0.2918
18966THY    CA264607   7.114   9.087   2.171  0.4339  0.3720  0.1328
18966THY    CP164608   7.173   8.964   2.238  0.0111  0.5517 -0.0301
18966THY    HP164609   7.105   8.914   2.307  0.4410  0.7995 -0.2771
18966THY    CP264610   7.297   8.999   2.319 -0.1104  0.2150  0.4412
18966THY    HP264611   7.322   8.909   2.376 -0.0339  1.0514  0.9791
18966THY    HP364612   7.271   9.082   2.386  0.6690  0.1380  0.7542
18966THY    HP464613   7.378   9.042   2.259  0.4171  0.3301 -0.3626
18966THY    CP364614   7.208   8.849   2.137 -0.0027  0.1683 -0.2559
18966THY    HP564615   7.122   8.841   2.069  0.4194 -0.4720  0.5320
18966THY    HP664616   7.234   8.751   2.181  0.1962 -0.4403 -0.4785
18966THY    HP764617   7.299   8.881   2.086  0.3080  0.8935  0.0556
18966THY    CA364618   7.186   9.138   2.063 -0.1890 -0.4654 -0.6022
18966THY    HA364619   7.289   9.108   2.043  0.3856  0.0791  0.9345
18966THY    CA464620   7.131   9.242   1.991  0.2039  0.3282  0.2232
18966THY    HA464621   7.175   9.271   1.896 -1.1207 -0.4886 -0.3616
18966THY    CA564622   7.013   9.301   2.032  0.3679 -0.3145 -1.3240
18966THY    CM164623   6.944   9.401   1.937  0.8561  0.3562  0.5335
18966THY    HM164624   6.939   9.358   1.836  0.6817  0.7565 -0.4290
18966THY    HM264625   6.998   9.495   1.924  1.1137 -0.8292  0.2451
18966THY    HM364626   6.844   9.434   1.967  1.3858  0.9085  1.6911
18966THY    CA664627   6.947   9.265   2.146 -0.1417 -0.3495  0.4810
18966THY    HA664628   6.849   9.302   2.176 -1.2528  0.4340 -2.7622
18967THY      O64629   6.352   5.108   3.674  0.1525 -0.1436  0.1416
18967THY     HO64630   6.274   5.061   3.707 -0.4494 -0.3421  0.9722
18967THY    CA164631   6.328   5.160   3.553 -0.0695  0.2426 -0.1229
18967THY    CA264632   6.427   5.213   3.478 -0.3051  0.5418 -0.0041
18967THY    CP164633   6.575   5.240   3.540  0.2537  0.0335  0.3056
18967THY    HP164634   6.581   5.211   3.645  0.0276 -0.0089  0.0998
18967THY    CP264635   6.607   5.385   3.555  0.2643  0.2766  0.4842
18967THY    HP264636   6.540   5.429   3.629 -2.8171 -1.8517 -0.3454
18967THY    HP364637   6.580   5.442   3.465  0.9864  0.8577  1.7996
18967THY    HP464638   6.713   5.396   3.581  0.7927 -0.7385 -1.6546
18967THY    CP364639   6.677   5.165   3.455  0.1389 -0.5521 -0.2786
18967THY    HP564640   6.623   5.074   3.424 -2.0675  0.4265  0.6228
18967THY    HP664641   6.764   5.134   3.512 -0.4480 -0.0752 -1.0971
18967THY    HP764642   6.710   5.211   3.361  1.7443 -0.6243 -1.5101
18967THY    CA364643   6.400   5.252   3.346  0.2764  0.3671  0.0875
18967THY    HA364644   6.478   5.288   3.280  0.3091  0.0373 -0.5743
18967THY    CA464645   6.266   5.243   3.297 -0.3738  1.1985  0.0875
18967THY    HA464646   6.236   5.279   3.199 -2.2514  1.5927 -0.3178
18967THY    CA564647   6.165   5.195   3.374  0.3377  0.7623  0.9531
18967THY    CM164648   6.025   5.185   3.312  0.0973  0.0567  0.4318
18967THY    HM164649   5.955   5.155   3.390  0.0603 -1.1488 -3.0323
18967THY    HM264650   6.018   5.107   3.235 -1.3688  1.5048 -0.9237
18967THY    HM364651   5.985   5.278   3.269 -2.5377 -0.8977 -1.0336
18967THY    CA664652   6.197   5.156   3.506  0.2638  0.1101 -0.1112
18967THY    HA664653   6.119   5.115   3.570  2.0841  3.5675  1.3652
18968THY      O64654   2.924   3.139   3.452  0.4969 -0.2958  0.5618
18968THY     HO64655   2.915   3.064   3.514  4.7893  0.9125  0.7820
18968THY    CA164656   2.914   3.250   3.526 -0.6307 -0.4439 -0.6187
18968THY    CA264657   2.938   3.374   3.458  0.0772 -0.0665 -0.6626
18968THY    CP164658   2.975   3.391   3.309  0.0162  0.5533  0.2613
18968THY    HP164659   2.990   3.292   3.264 -2.1325 -0.6878  0.4241
18968THY    CP264660   3.092   3.486   3.291  0.6077  0.2544  0.4446
18968THY    HP264661   3.141   3.461   3.196  1.5201  0.4585  1.4106
18968THY    HP364662   3.160   3.476   3.376  0.5333  0.1583 -1.3325
18968THY    HP464663   3.070   3.593   3.292 -0.8902  0.7954  0.1649
18968THY    CP364664   2.852   3.452   3.231  0.3360 -0.3531  0.0699
18968THY    HP564665   2.865   3.481   3.127  1.9691 -0.3640 -0.6187
18968THY    HP664666   2.817   3.539   3.288  2.0380 -0.3021  0.7573
18968THY    HP764667   2.766   3.383   3.226 -0.2015 -0.7835  0.7553
18968THY    CA364668   2.921   3.484   3.541 -0.7109  0.9405  0.2233
18968THY    HA364669   2.934   3.583   3.497 -0.0573  1.1243  0.2226
18968THY    CA464670   2.884   3.478   3.676  0.5631 -0.4119 -0.4005
18968THY    HA464671   2.879   3.567   3.739 -1.2534 -1.2627  0.1676
18968THY    CA564672   2.858   3.355   3.733  0.9078 -0.6890 -0.4471
18968THY    CM164673   2.822   3.346   3.878 -0.6821  0.4278 -0.0561
18968THY    HM164674   2.893   3.419   3.920 -1.5022 -2.0190  2.3186
18968THY    HM264675   2.832   3.245   3.920  1.0485  1.9850  0.6982
18968THY    HM364676   2.718   3.380   3.884 -1.1654 -1.3716 -1.1000
18968THY    CA664677   2.880   3.243   3.657  0.6719  0.0739  0.2858
18968THY    HA664678   2.865   3.149   3.710 -1.2478  3.3923  2.2399
18969THY      O64679   5.786   0.803   3.987  0.0266  0.8360  0.0146
18969THY     HO64680   5.741   0.889   3.993  1.5033  1.5327  0.7719
18969THY    CA164681   5.720   0.735   3.899 -0.2695  0.3185 -0.5249
18969THY    CA264682   5.783   0.622   3.837  0.0413  0.3218  0.0579
18969THY    CP164683   5.914   0.569   3.890 -0.0893 -1.1327  0.0709
18969THY    HP164684   5.927   0.590   3.997  3.4134 -1.0969 -1.4518
18969THY    CP264685   6.037   0.632   3.828  0.0271 -1.1913 -0.5701
18969THY    HP264686   6.044   0.619   3.720 -0.5276 -1.4374  0.9839
18969THY    HP364687   6.124   0.594   3.883  0.5298 -0.0201  2.0808
18969THY    HP464688   6.035   0.737   3.858 -1.4044  1.5745 -1.2917
18969THY    CP364689   5.924   0.416   3.897  0.5173  1.1782  0.2341
18969THY    HP564690   6.018   0.378   3.940 -0.0397  1.2701 -1.1119
18969THY    HP664691   5.929   0.386   3.791  2.8148  0.5618  2.4651
18969THY    HP764692   5.834   0.366   3.935  1.4963 -0.2236 -2.8719
18969THY    CA364693   5.700   0.546   3.754  0.0071  0.6579 -0.1087
18969THY    HA364694   5.741   0.455   3.712 -0.2777 -1.3849  0.6540
18969THY    CA464695   5.566   0.584   3.727  0.3248 -0.0058  0.7960
18969THY    HA464696   5.496   0.515   3.681  2.2407 -0.2685 -1.0747
18969THY    CA564697   5.514   0.704   3.774 -0.3062 -0.0710 -0.5879
18969THY    CM164698   5.369   0.735   3.757  1.3086 -0.1957  0.1222
18969THY    HM164699   5.319   0.646   3.717 -1.2605  1.8889  0.5132
18969THY    HM264700   5.345   0.818   3.690 -1.3429 -2.3365 -2.1792
18969THY    HM364701   5.324   0.733   3.856  3.3871  0.8141  0.0910
18969THY    CA664702   5.587   0.775   3.864  0.1904 -0.0531 -0.1292
18969THY    HA664703   5.545   0.858   3.920  1.1508 -2.9031  2.4507
18970THY      O64704   8.418   3.737   1.725  0.0830  0.9938  0.2746
18970THY     HO64705   8.337   3.775   1.685  1.5533 -1.1656  1.3540
18970THY    CA164706   8.446   3.792   1.841  0.1446  0.8768  0.5479
18970THY    CA264707   8.537   3.742   1.935  0.0693 -0.7981  0.2205
18970THY    CP164708   8.596   3.607   1.907 -0.0444 -0.5874  0.2035
18970THY    HP164709   8.629   3.596   1.803  1.6745  0.0024 -0.5567
18970THY    CP264710   8.498   3.491   1.923  0.3742 -0.4402 -0.4731
18970THY    HP264711   8.431   3.491   1.836  1.4610 -1.3103  0.9941
18970THY    HP364712   8.440   3.502   2.015  0.3441 -0.2867 -1.7285
18970THY    HP464713   8.556   3.399   1.935  1.8493  2.6326  0.7285
18970THY    CP364714   8.731   3.586   1.987 -0.4572  0.1304  0.7339
18970THY    HP564715   8.768   3.486   1.964  0.1930  0.0496  0.9845
18970THY    HP664716   8.708   3.589   2.094  0.2401  0.3260 -0.5549
18970THY    HP764717   8.806   3.661   1.958  0.0976 -0.2360  0.0481
18970THY    CA364718   8.555   3.816   2.050  0.0041 -0.4137  0.2329
18970THY    HA364719   8.617   3.777   2.130 -2.1987  0.5631 -1.4667
18970THY    CA464720   8.488   3.938   2.068  0.6154  0.8417  0.4773
18970THY    HA464721   8.494   3.988   2.164  0.6420  0.1036  1.9182
18970THY    CA564722   8.402   3.989   1.973  0.0977 -0.3290  0.6968
18970THY    CM164723   8.338   4.119   2.004  0.1893  0.1303  0.5048
18970THY    HM164724   8.231   4.120   1.980  0.2410 -0.1118  1.1677
18970THY    HM264725   8.389   4.196   1.945  1.2253  2.1134  1.4329
18970THY    HM364726   8.359   4.150   2.107  0.4021 -0.2957  1.8339
18970THY    CA664727   8.388   3.916   1.856  0.4065 -0.1825 -1.0402
18970THY    HA664728   8.325   3.965   1.783  0.8078 -1.4434 -2.3031
18971THY      O64729   6.864   1.667   5.472  0.5160  0.3007  0.1436
18971THY     HO64730   6.902   1.755   5.458  0.9098  1.0719  0.1037
18971THY    CA164731   6.792   1.670   5.594  0.5980  0.3254 -0.4666
18971THY    CA264732   6.757   1.554   5.657 -0.1246  0.0523 -0.2206
18971THY    CP164733   6.815   1.422   5.609 -0.0277 -0.3115  0.3137
18971THY    HP164734   6.898   1.449   5.543  0.9655  0.2085 -1.3486
18971THY    CP264735   6.715   1.344   5.532  0.0268  0.4924  0.1523
18971THY    HP264736   6.748   1.240   5.525 -1.7051 -0.7412 -0.3558
18971THY    HP364737   6.706   1.387   5.431 -2.0714  0.1365 -1.0043
18971THY    HP464738   6.618   1.358   5.579 -0.3787  0.0038 -0.9415
18971THY    CP364739   6.874   1.342   5.737  0.0882  0.2944 -0.0918
18971THY    HP564740   6.794   1.311   5.804 -0.3815 -0.3303 -0.2500
18971THY    HP664741   6.947   1.401   5.794  0.1573 -0.5470  0.6723
18971THY    HP764742   6.922   1.252   5.696  0.4147  1.7729 -0.6168
18971THY    CA364743   6.684   1.567   5.774  0.1403 -0.5154  0.4731
18971THY    HA364744   6.653   1.480   5.831 -1.5866 -0.5364  1.0376
18971THY    CA464745   6.641   1.695   5.825 -0.0127  0.1011 -0.1102
18971THY    HA464746   6.578   1.694   5.913 -0.1000  0.0368 -0.8825
18971THY    CA564747   6.684   1.811   5.752  0.3506 -0.0413  0.5422
18971THY    CM164748   6.638   1.948   5.792 -0.0681  0.5682  0.3038
18971THY    HM164749   6.685   2.022   5.727 -0.4799 -0.9652 -0.7283
18971THY    HM264750   6.682   1.966   5.890  0.3741  0.2353  1.0575
18971THY    HM364751   6.531   1.964   5.773 -0.5374  0.0945 -2.6603
18971THY    CA664752   6.760   1.794   5.638 -0.0603 -0.2869  0.3022
18971THY    HA664753   6.787   1.875   5.571  0.7658  0.1232  0.3813
18972THY      O64754   3.314   2.160   6.541  0.3816 -0.4365 -0.7121
18972THY     HO64755   3.254   2.096   6.583  1.9756  1.3861 -1.0913
18972THY    CA164756   3.356   2.231   6.645 -0.4717  0.1200  0.5604
18972THY    CA264757   3.464   2.329   6.626 -0.6537  0.4074  0.1311
18972THY    CP164758   3.518   2.356   6.482  0.6756  0.1370  0.6758
18972THY    HP164759   3.483   2.277   6.413  2.3500  2.0166 -1.8713
18972THY    CP264760   3.670   2.346   6.471 -0.4439 -0.4057 -0.5254
18972THY    HP264761   3.711   2.385   6.377 -1.0987 -1.7275 -2.8617
18972THY    HP364762   3.699   2.240   6.480  2.4055 -1.0627  0.1101
18972THY    HP464763   3.710   2.410   6.551 -0.0545 -0.8186 -0.2541
18972THY    CP364764   3.475   2.493   6.438  0.6887  0.0540  0.3010
18972THY    HP564765   3.471   2.501   6.329  2.1260  0.1152  3.1740
18972THY    HP664766   3.533   2.574   6.484 -1.2074  1.0054  1.1869
18972THY    HP764767   3.371   2.499   6.471  0.3037 -1.1165  0.1612
18972THY    CA364768   3.519   2.406   6.735  0.1900 -0.4152 -0.1304
18972THY    HA364769   3.605   2.473   6.735  1.0281 -0.1675 -1.1808
18972THY    CA464770   3.458   2.378   6.860  0.2993  0.3723 -0.0508
18972THY    HA464771   3.498   2.412   6.956 -1.6408  1.7232 -1.4026
18972THY    CA564772   3.353   2.283   6.875 -0.3162 -0.2235 -0.0540
18972THY    CM164773   3.293   2.268   7.015  0.4991 -0.2086  0.4103
18972THY    HM164774   3.297   2.355   7.083 -2.3541  1.3826 -0.5673
18972THY    HM264775   3.326   2.188   7.082 -0.3227  1.5020  1.4266
18972THY    HM364776   3.185   2.256   7.005  0.2619  0.6342  1.5910
18972THY    CA664777   3.293   2.218   6.770 -0.6986  0.8716 -0.1907
18972THY    HA664778   3.215   2.144   6.784 -0.2721  0.8841 -0.6436
18973THY      O64779   5.097   0.972   6.230  0.2381  0.1559  0.3418
18973THY     HO64780   5.098   1.008   6.320  1.2998 -0.3190  1.5814
18973THY    CA164781   5.001   0.882   6.227 -0.0754 -0.0296  0.5632
18973THY    CA264782   4.985   0.803   6.106  0.3231 -0.3229  0.1326
18973THY    CP164783   5.067   0.831   5.978 -0.0459  0.8115 -0.0466
18973THY    HP164784   5.149   0.904   5.987  0.2057 -1.0738 -0.0293
18973THY    CP264785   4.977   0.896   5.870  0.0397  0.2728  0.1451
18973THY    HP264786   4.940   0.993   5.905 -0.6931 -2.1293  0.8046
18973THY    HP364787   4.892   0.831   5.847  0.0169 -1.1053  0.6398
18973THY    HP464788   5.024   0.912   5.773 -3.2849 -1.5602 -0.3389
18973THY    CP364789   5.132   0.710   5.916  0.1129  0.7527  0.1647
18973THY    HP564790   5.183   0.739   5.824 -1.8124 -2.1541 -4.5442
18973THY    HP664791   5.065   0.632   5.881  1.1255  0.8119 -0.7499
18973THY    HP764792   5.210   0.681   5.988  1.1091  0.1859  1.3284
18973THY    CA364793   4.877   0.704   6.114 -0.4330 -0.0263 -0.0009
18973THY    HA364794   4.840   0.641   6.033 -0.0646 -0.0075 -0.2395
18973THY    CA464795   4.798   0.697   6.232  0.1317  0.8157 -0.6641
18973THY    HA464796   4.712   0.631   6.239 -0.4577  1.1238  0.1061
18973THY    CA564797   4.817   0.792   6.333 -0.0014 -0.0115  0.7157
18973THY    CM164798   4.732   0.785   6.455  0.3777 -0.4436 -0.1202
18973THY    HM164799   4.790   0.829   6.537 -0.9841  1.3342 -1.4668
18973THY    HM264800   4.714   0.679   6.473 -0.1492 -0.4798 -0.0360
18973THY    HM364801   4.639   0.842   6.445 -0.5358  0.3494 -1.4382
18973THY    CA664802   4.918   0.883   6.333  0.6196 -0.1264  0.3406
18973THY    HA664803   4.914   0.976   6.389 -1.1219  0.7507 -0.2297
18974THY      O64804   2.046   2.752   5.035  0.6459  0.2814 -0.1707
18974THY     HO64805   2.051   2.769   4.940  0.6367  0.6511  2.1826
18974THY    CA164806   2.103   2.866   5.092 -0.1250 -0.0457  0.0874
18974THY    CA264807   2.082   2.900   5.230 -0.0643 -0.7373 -0.6014
18974THY    CP164808   2.004   2.800   5.319 -0.6454 -0.3893 -0.0816
18974THY    HP164809   2.006   2.703   5.269 -0.3305 -0.5038 -0.0180
18974THY    CP264810   1.867   2.864   5.350  0.4878  0.1209 -0.1915
18974THY    HP264811   1.886   2.961   5.398  0.9490 -0.3131 -0.0664
18974THY    HP364812   1.808   2.803   5.420 -0.6457  0.0523  0.7828
18974THY    HP464813   1.805   2.878   5.261 -0.6260  0.5019 -2.2022
18974THY    CP364814   2.076   2.776   5.453  0.0299  0.3838  0.3295
18974THY    HP564815   2.174   2.733   5.429 -1.0938 -0.3657 -1.9819
18974THY    HP664816   2.023   2.702   5.515 -1.4916  0.1893  1.2051
18974THY    HP764817   2.099   2.863   5.515  1.0743  0.2182  0.1844
18974THY    CA364818   2.141   3.022   5.271 -0.2099 -0.7011 -0.1633
18974THY    HA364819   2.118   3.060   5.370 -1.0742  0.2013 -2.8195
18974THY    CA464820   2.223   3.098   5.191 -1.5727  0.8515 -0.1151
18974THY    HA464821   2.278   3.185   5.226 -0.5292 -1.8766  0.4137
18974THY    CA564822   2.241   3.055   5.056 -0.3676  0.1230 -0.8583
18974THY    CM164823   2.322   3.148   4.968  0.4563 -0.5539 -0.7071
18974THY    HM164824   2.401   3.184   5.035  0.5800  0.3134 -2.4680
18974THY    HM264825   2.263   3.237   4.945  0.2315 -0.7917 -0.9183
18974THY    HM364826   2.358   3.118   4.869 -2.1331 -2.3131  1.5169
18974THY    CA664827   2.180   2.944   5.007 -0.4853  0.1003  0.6089
18974THY    HA664828   2.205   2.903   4.909  0.2282  0.9945 -1.1945
18975THY      O64829   7.000   4.032   3.524  0.3212 -0.1851  0.1560
18975THY     HO64830   7.041   4.038   3.612 -3.6886  1.8211  2.5463
18975THY    CA164831   6.907   4.130   3.538  0.2068 -0.6339 -0.4677
18975THY    CA264832   6.812   4.162   3.433 -0.6083 -0.1598 -0.0250
18975THY    CP164833   6.822   4.091   3.295  0.3338  0.9521  0.0774
18975THY    HP164834   6.930   4.101   3.278  0.3395  1.7188  1.5167
18975THY    CP264835   6.753   4.169   3.176  0.3574 -0.0873  0.4890
18975THY    HP264836   6.774   4.117   3.081  1.2851 -1.0679  2.5394
18975THY    HP364837   6.794   4.270   3.180 -0.7655  1.3104  0.9219
18975THY    HP464838   6.643   4.160   3.176  0.4801 -0.4341 -1.9292
18975THY    CP364839   6.781   3.947   3.296  0.1405  0.6191 -0.2121
18975THY    HP564840   6.763   3.897   3.199 -0.9107  0.3414  0.6541
18975THY    HP664841   6.691   3.948   3.359  1.0700  2.1067 -2.6483
18975THY    HP764842   6.850   3.882   3.351  0.1041 -1.0235 -1.7568
18975THY    CA364843   6.713   4.261   3.464  0.0334 -0.2007 -0.1157
18975THY    HA364844   6.627   4.276   3.400  0.2392 -0.4919 -0.1654
18975THY    CA464845   6.713   4.318   3.589 -0.6378 -0.4731  0.1598
18975THY    HA464846   6.639   4.395   3.611 -2.0901 -0.9901 -1.0446
18975THY    CA564847   6.807   4.283   3.684  0.4753  0.3443  0.0709
18975THY    CM164848   6.798   4.352   3.815  0.1550 -0.6751 -0.5522
18975THY    HM164849   6.884   4.329   3.880 -1.0213  1.2420  0.2287
18975THY    HM264850   6.702   4.336   3.866 -0.6345 -0.8680  2.8890
18975THY    HM364851   6.807   4.460   3.803  1.2639 -2.5256 -0.8086
18975THY    CA664852   6.907   4.193   3.659  0.2609  0.1159 -0.1885
18975THY    HA664853   6.971   4.171   3.743 -0.7968  0.7647 -0.8738
18976THY      O64854   2.239   3.490   2.017 -0.1721  0.0413  0.1820
18976THY     HO64855   2.298   3.535   1.955  0.8574  1.3621  0.7250
18976THY    CA164856   2.250   3.559   2.135 -0.1113  0.0914  0.2351
18976THY    CA264857   2.153   3.557   2.234 -0.3533  0.6861  0.0243
18976THY    CP164858   2.021   3.477   2.208  0.5663 -0.4814  0.1520
18976THY    HP164859   2.044   3.369   2.208  1.0872  3.1913  0.1706
18976THY    CP264860   1.935   3.524   2.091 -0.3306  0.7195 -0.2109
18976THY    HP264861   1.901   3.628   2.105  0.9499 -0.2901  0.3711
18976THY    HP364862   1.847   3.462   2.074  0.2356 -1.6851 -0.4370
18976THY    HP464863   1.983   3.529   1.993 -3.0666 -0.6709  0.7553
18976THY    CP364864   1.931   3.474   2.337 -0.4773  0.1443 -0.6149
18976THY    HP564865   1.906   3.579   2.353  2.4763 -1.7851  0.5021
18976THY    HP664866   2.005   3.445   2.414  2.1256 -1.1615  2.0516
18976THY    HP764867   1.858   3.393   2.321 -1.6364  0.5274  0.3317
18976THY    CA364868   2.178   3.632   2.347 -1.1035 -0.8778  1.1128
18976THY    HA364869   2.105   3.637   2.427 -0.5234 -0.3406  1.0681
18976THY    CA464870   2.301   3.698   2.360 -0.1304 -1.0264  0.5434
18976THY    HA464871   2.325   3.734   2.460 -0.9483 -0.0897 -1.3689
18976THY    CA564872   2.397   3.694   2.258  0.9897 -1.0490  0.3058
18976THY    CM164873   2.530   3.765   2.272  0.0977 -0.3253 -0.6236
18976THY    HM164874   2.619   3.712   2.236  1.0750  1.0615  0.0066
18976THY    HM264875   2.550   3.804   2.372  0.6966 -0.5184 -0.4268
18976THY    HM364876   2.528   3.848   2.201  0.2391 -1.1177 -1.2839
18976THY    CA664877   2.371   3.625   2.144  0.0648  0.3677 -0.0949
18976THY    HA664878   2.445   3.617   2.065  1.6241  1.4875  2.2005
18977THY      O64879   9.429   6.130   4.554  0.4985  0.3968  0.0738
18977THY     HO64880   9.498   6.130   4.623 -0.8995  1.9185 -1.7765
18977THY    CA164881   9.322   6.180   4.614 -0.4422 -0.2054 -0.4993
18977THY    CA264882   9.200   6.118   4.597 -0.2905 -0.4258  0.1193
18977THY    CP164883   9.189   5.983   4.513  0.5474  0.2650  0.2108
18977THY    HP164884   9.259   5.968   4.430  1.3221  1.2495 -2.0293
18977THY    CP264885   9.053   5.969   4.451 -0.4868 -0.0900  0.1206
18977THY    HP264886   9.030   6.047   4.377 -0.5912 -0.3523 -0.1567
18977THY    HP364887   8.964   5.978   4.514 -0.5008 -0.1532  0.4166
18977THY    HP464888   9.063   5.870   4.404  0.9657 -1.0145  0.6712
18977THY    CP364889   9.223   5.871   4.605  0.7269  0.7780  0.5175
18977THY    HP564890   9.155   5.883   4.691  1.7335  1.7336 -0.2938
18977THY    HP664891   9.324   5.876   4.648  0.5316  1.2638  0.3692
18977THY    HP764892   9.211   5.774   4.554 -1.9997 -2.3250  2.2794
18977THY    CA364893   9.083   6.186   4.655  0.3199  0.0988 -0.1373
18977THY    HA364894   8.980   6.153   4.646 -0.3886  3.5370  0.7483
18977THY    CA464895   9.104   6.295   4.739 -0.2070  0.3610 -0.0048
18977THY    HA464896   9.017   6.330   4.793 -0.6297 -0.1264 -0.2958
18977THY    CA564897   9.235   6.350   4.760  0.2516  0.1662  0.6946
18977THY    CM164898   9.257   6.470   4.845 -0.5448  0.1207 -0.3758
18977THY    HM164899   9.192   6.460   4.933 -0.4491  0.1894 -0.3933
18977THY    HM264900   9.233   6.565   4.796  1.4191  1.4852  0.9179
18977THY    HM364901   9.360   6.475   4.884 -0.7761  1.0032 -1.9515
18977THY    CA664902   9.337   6.295   4.685  0.8622 -0.7041 -0.2461
18977THY    HA664903   9.435   6.342   4.678  0.7219 -3.1789 -0.1822
18978THY      O64904   5.358   8.958   2.159  0.1541  0.1947  0.1206
18978THY     HO64905   5.435   9.007   2.126  0.1589  2.6218  1.9899
18978THY    CA164906   5.392   8.917   2.282  0.1138  0.0114 -0.1090
18978THY    CA264907   5.312   8.830   2.356 -0.6063  0.5909 -0.4029
18978THY    CP164908   5.189   8.775   2.289 -0.3764  0.8512 -0.2438
18978THY    HP164909   5.137   8.852   2.231  0.7017 -0.2061 -0.2869
18978THY    CP264910   5.091   8.720   2.393 -0.2699  0.3663 -0.4998
18978THY    HP264911   5.126   8.623   2.430 -2.6653 -1.6432 -2.2461
18978THY    HP364912   4.992   8.706   2.350 -0.0718 -0.1814 -0.2220
18978THY    HP464913   5.073   8.791   2.475 -1.2882 -0.2647 -0.0090
18978THY    CP364914   5.222   8.662   2.191  0.3699 -0.7164 -0.8808
18978THY    HP564915   5.244   8.569   2.244  1.8707  0.1638 -0.0598
18978THY    HP664916   5.312   8.680   2.130 -1.7000 -3.5809  0.7392
18978THY    HP764917   5.136   8.647   2.124 -0.4217  0.2394 -0.7346
18978THY    CA364918   5.353   8.791   2.485  0.2286 -0.5355  0.2910
18978THY    HA364919   5.307   8.710   2.542  0.3870  0.0957  0.6429
18978THY    CA464920   5.470   8.845   2.543 -0.6943 -0.0769 -0.2973
18978THY    HA464921   5.492   8.816   2.645 -0.7529  0.4344  1.3377
18978THY    CA564922   5.547   8.931   2.461 -0.1852 -0.0630  0.4875
18978THY    CM164923   5.678   8.976   2.520 -0.4305 -1.4056 -0.8603
18978THY    HM164924   5.671   9.066   2.582 -0.5034  0.6617 -2.2167
18978THY    HM264925   5.765   8.980   2.453  1.3075  0.7580  2.7978
18978THY    HM364926   5.712   8.899   2.590 -1.2359 -1.3106 -1.1363
18978THY    CA664927   5.510   8.977   2.337  0.3088  0.0311 -0.6083
18978THY    HA664928   5.552   9.061   2.281 -1.8878 -2.6088 -1.1557
18979THY      O64929   2.770   8.994   6.959  0.2849 -0.1423 -0.0214
18979THY     HO64930   2.707   9.028   7.024  1.5829  0.5260  1.2023
18979THY    CA164931   2.797   9.092   6.881 -0.2124  0.5838  0.1382
18979THY    CA264932   2.904   9.096   6.786 -0.6063  0.2303 -0.3734
18979THY    CP164933   3.003   8.977   6.769 -0.1114  0.2357  0.0339
18979THY    HP164934   2.986   8.901   6.847  1.4754  0.3415 -0.2357
18979THY    CP264935   3.149   9.012   6.785  0.1660  0.3855  0.2643
18979THY    HP264936   3.168   9.048   6.887  2.9367 -0.4966  1.5736
18979THY    HP364937   3.185   9.093   6.720 -3.2930  2.4776  3.7969
18979THY    HP464938   3.217   8.931   6.757  0.9709 -1.6624  1.5448
18979THY    CP364939   2.974   8.904   6.633  0.6079 -0.6083 -0.0553
18979THY    HP564940   2.871   8.913   6.596  0.1745  0.5789 -0.0252
18979THY    HP664941   3.009   8.801   6.639 -0.4978  0.2091 -0.4039
18979THY    HP764942   3.036   8.955   6.558 -1.0133 -1.8474  0.2022
18979THY    CA364943   2.919   9.207   6.706 -0.4110 -0.8791 -0.3661
18979THY    HA364944   3.011   9.221   6.650  0.1231 -0.7860 -3.1187
18979THY    CA464945   2.834   9.313   6.726  0.2071  0.2073 -0.0011
18979THY    HA464946   2.860   9.403   6.671  1.4975  0.9313  0.0962
18979THY    CA564947   2.724   9.312   6.814 -0.0827  0.0173  0.1697
18979THY    CM164948   2.640   9.436   6.822 -0.4087 -0.5002  0.4601
18979THY    HM164949   2.672   9.521   6.760  1.2777 -0.3832 -0.0437
18979THY    HM264950   2.645   9.470   6.926  0.9957 -0.6667  0.8066
18979THY    HM364951   2.532   9.417   6.818 -0.8821  3.1556  1.6516
18979THY    CA664952   2.703   9.197   6.889  0.4077  0.0318  0.1414
18979THY    HA664953   2.628   9.190   6.967  1.0202  0.4807 -2.5769
18980THY      O64954   4.109   4.206   7.034  0.6497  0.1016 -0.2524
18980THY     HO64955   4.030   4.163   6.997  0.7013  0.8145 -0.9775
18980THY    CA164956   4.162   4.270   6.931  0.6873 -0.4589  0.1084
18980THY    CA264957   4.298   4.290   6.907  0.8661  0.4406 -0.3367
18980THY    CP164958   4.397   4.261   7.018 -0.1067  0.1537  0.4725
18980THY    HP164959   4.351   4.230   7.113 -0.1663  1.2041  3.4717
18980THY    CP264960   4.455   4.392   7.065  0.4050 -0.8611  0.1311
18980THY    HP264961   4.519   4.437   6.989 -0.8331 -2.1903 -0.2641
18980THY    HP364962   4.514   4.385   7.158 -2.6816  1.4874  2.3091
18980THY    HP464963   4.379   4.465   7.096  0.4163 -0.4219 -0.0401
18980THY    CP364964   4.504   4.161   6.983  0.1217  0.6096  0.1309
18980THY    HP564965   4.478   4.061   7.020 -0.4669 -1.9983 -0.7745
18980THY    HP664966   4.597   4.199   7.027 -1.0255  1.4694  2.0696
18980THY    HP764967   4.510   4.164   6.873 -2.1652  0.4219 -0.4572
18980THY    CA364968   4.337   4.349   6.789 -0.1287 -0.2635  0.2047
18980THY    HA364969   4.443   4.369   6.777  0.2600  0.9969 -0.9384
18980THY    CA464970   4.239   4.379   6.693 -0.0613  0.5789 -0.1640
18980THY    HA464971   4.263   4.417   6.594 -0.7517  0.2490 -0.5698
18980THY    CA564972   4.112   4.372   6.723  0.3546  0.2392  0.2953
18980THY    CM164973   4.013   4.401   6.612 -0.3625  0.3905 -0.2003
18980THY    HM164974   4.049   4.482   6.548 -2.4284 -0.0984  0.4061
18980THY    HM264975   3.916   4.422   6.659 -0.4812 -0.4668  1.3062
18980THY    HM364976   4.002   4.313   6.548  0.9022 -1.3778  0.8728
18980THY    CA664977   4.069   4.316   6.842  0.5009  0.0450  0.5355
18980THY    HA664978   3.961   4.303   6.849  0.3063 -1.3252  1.2455
18981THY      O64979   2.893   4.830   6.421 -0.3486 -0.0801  0.3831
18981THY     HO64980   2.887   4.887   6.342  2.1131  0.4930  1.5744
18981THY    CA164981   2.809   4.880   6.511 -0.5152  0.2067 -0.4108
18981THY    CA264982   2.828   4.844   6.645  0.2040 -0.1032  0.3674
18981THY    CP164983   2.924   4.729   6.682 -0.2427  0.6308 -1.0861
18981THY    HP164984   3.008   4.720   6.613 -0.6780 -0.0629 -0.0160
18981THY    CP264985   2.857   4.592   6.698 -0.4027 -0.0502 -0.2113
18981THY    HP264986   2.777   4.585   6.623 -0.1703 -0.2557 -0.7616
18981THY    HP364987   2.822   4.569   6.799 -1.5199 -0.2422  0.6001
18981THY    HP464988   2.933   4.519   6.669 -0.5992 -0.0286 -0.4263
18981THY    CP364989   3.001   4.760   6.810  0.1494 -0.2054 -0.7874
18981THY    HP564990   3.086   4.694   6.829  1.4390 -1.9368  0.3173
18981THY    HP664991   2.937   4.767   6.899  0.2690  0.0732 -2.5665
18981THY    HP764992   3.050   4.857   6.797 -0.5490  0.5927 -0.3037
18981THY    CA364993   2.744   4.898   6.747 -0.3453  0.0703 -0.7569
18981THY    HA364994   2.734   4.871   6.852 -1.2844  0.2400  0.1612
18981THY    CA464995   2.652   4.991   6.697 -0.4239  0.0975  0.3502
18981THY    HA464996   2.583   5.045   6.761 -1.6349 -1.4172  0.6370
18981THY    CA564997   2.641   5.028   6.560 -0.8017 -0.4023 -0.6163
18981THY    CM164998   2.531   5.124   6.514  0.2366  0.3253  0.0333
18981THY    HM164999   2.563   5.228   6.522  1.9303 -0.5646 -0.3791
18981THY    HM265000   2.444   5.101   6.577  0.1437 -0.4032 -1.7818
18981THY    HM365001   2.509   5.105   6.408  0.4786  0.1859  0.5269
18981THY    CA665002   2.726   4.979   6.473  0.5947  0.7298  0.3713
18981THY    HA665003   2.718   5.000   6.367 -0.9613  0.6829 -0.3380
18982THY      O65004   2.442   3.372   7.287  0.1802 -0.0985 -0.3929
18982THY     HO65005   2.534   3.376   7.256 -0.4255 -1.9286  1.7762
18982THY    CA165006   2.379   3.336   7.168  0.7278 -0.7992 -0.5013
18982THY    CA265007   2.245   3.370   7.137 -0.1676 -0.4595  0.3531
18982THY    CP165008   2.162   3.454   7.237 -1.3275  0.5286  0.1564
18982THY    HP165009   2.194   3.424   7.337 -0.7536  0.4443  0.4727
18982THY    CP265010   2.016   3.417   7.229 -0.1100  0.1728 -0.6493
18982THY    HP265011   1.961   3.478   7.301  1.8230 -0.1883  1.6642
18982THY    HP365012   1.992   3.315   7.259 -2.2446  0.7597 -0.0236
18982THY    HP465013   1.974   3.411   7.128  0.8318 -0.2112 -0.9714
18982THY    CP365014   2.180   3.610   7.208 -0.4234  0.5630 -0.3055
18982THY    HP565015   2.280   3.643   7.239 -0.4740 -0.6804  1.1160
18982THY    HP665016   2.106   3.677   7.252 -1.7609 -1.7644 -0.1684
18982THY    HP765017   2.185   3.631   7.101 -1.3462  0.7259  0.8192
18982THY    CA365018   2.195   3.340   7.005  0.8914 -0.1025 -0.3899
18982THY    HA365019   2.093   3.361   6.976  0.7313  0.4491 -0.3909
18982THY    CA465020   2.284   3.282   6.911 -0.8791 -0.6816 -0.1730
18982THY    HA465021   2.265   3.273   6.805  2.8247 -1.4929  0.1137
18982THY    CA565022   2.410   3.240   6.951 -0.1225 -0.2065  0.1973
18982THY    CM165023   2.490   3.164   6.846 -0.0972 -0.1160  0.3356
18982THY    HM165024   2.482   3.220   6.752  0.7337 -0.6831 -0.4762
18982THY    HM265025   2.462   3.060   6.827  1.6395 -1.1008 -0.0020
18982THY    HM365026   2.593   3.175   6.883 -1.4353  4.0125  0.7092
18982THY    CA665027   2.455   3.263   7.080  0.2155 -0.1894  0.5667
18982THY    HA665028   2.546   3.219   7.120 -1.7295  0.9151 -2.8439
18983THY      O65029   0.485   1.385   7.055 -0.0422 -0.2650  0.4636
18983THY     HO65030   0.396   1.352   7.033 -1.9354  2.7068  3.0477
18983THY    CA165031   0.499   1.516   7.014  0.4990  0.5383  0.5543
18983THY    CA265032   0.621   1.584   6.996  0.1234  0.0905 -0.3362
18983THY    CP165033   0.749   1.516   7.045  0.8100 -0.0186 -0.8098
18983THY    HP165034   0.721   1.426   7.101  0.4419 -2.2649 -2.1707
18983THY    CP265035   0.818   1.605   7.151 -0.7886  0.3218  0.7563
18983THY    HP265036   0.745   1.628   7.229 -1.1531  1.1796 -2.8445
18983THY    HP365037   0.850   1.697   7.100 -0.9854 -0.4038  0.4294
18983THY    HP465038   0.902   1.559   7.203  0.1900 -2.1892 -0.5035
18983THY    CP365039   0.839   1.484   6.924  0.2737 -0.1403  0.7294
18983THY    HP565040   0.872   1.572   6.868  1.2530 -0.5960  0.0973
18983THY    HP665041   0.784   1.422   6.853 -1.0999  0.6989  0.9550
18983THY    HP765042   0.933   1.435   6.955  1.2409  0.7401  2.9972
18983THY    CA365043   0.620   1.711   6.933 -0.3993  0.3151  0.0045
18983THY    HA365044   0.714   1.765   6.926 -0.1608  1.0975 -0.2901
18983THY    CA465045   0.496   1.750   6.873  0.2344  0.2572 -0.2835
18983THY    HA465046   0.491   1.846   6.824  1.2836 -0.7840 -0.7412
18983THY    CA565047   0.377   1.683   6.897  0.0529  0.1806 -0.5567
18983THY    CM165048   0.248   1.731   6.845 -0.4164  0.4169 -0.4142
18983THY    HM165049   0.232   1.697   6.742 -0.2774  0.2976 -0.1219
18983THY    HM265050   0.248   1.841   6.852 -0.4656  3.0223 -0.5291
18983THY    HM365051   0.161   1.688   6.897 -2.4770 -1.3073  1.3780
18983THY    CA665052   0.376   1.571   6.976  0.6731 -0.2129 -0.3979
18983THY    HA665053   0.286   1.511   6.985 -0.6163  1.8227  1.6705
18984THY      O65054   6.916   0.773   5.334 -0.3888 -0.8157  0.1643
18984THY     HO65055   6.885   0.721   5.410 -0.7704  0.0230  1.5767
18984THY    CA165056   6.958   0.876   5.397  0.3479 -0.1949 -0.6892
18984THY    CA265057   6.953   1.008   5.347  0.2669 -0.1984  0.1116
18984THY    CP165058   6.902   1.027   5.209  0.1826  0.2939  0.0552
18984THY    HP165059   6.914   0.937   5.148 -0.4148 -0.3518  0.4098
18984THY    CP265060   6.971   1.138   5.134  0.6323 -0.1234 -0.0843
18984THY    HP265061   6.952   1.119   5.028 -1.8111  0.2947 -0.2685
18984THY    HP365062   7.079   1.142   5.154  0.6308 -0.2835  1.9830
18984THY    HP465063   6.935   1.240   5.156 -0.7589 -0.6421 -0.4469
18984THY    CP365064   6.749   1.039   5.214  0.3192 -0.4610 -0.5393
18984THY    HP565065   6.704   0.945   5.247 -0.9688 -3.3431 -1.0430
18984THY    HP665066   6.703   1.066   5.118 -1.2907  0.8389  1.6725
18984THY    HP765067   6.721   1.123   5.279  3.0398 -1.1369  1.0148
18984THY    CA365068   7.008   1.116   5.420 -0.2883 -0.5626 -0.2336
18984THY    HA365069   7.006   1.220   5.387 -1.6843 -0.4514 -0.1995
18984THY    CA465070   7.070   1.093   5.546 -0.3101  0.0045  0.7468
18984THY    HA465071   7.110   1.176   5.603  0.2897  0.1889  0.3370
18984THY    CA565072   7.087   0.956   5.594  0.2633  0.5575 -0.4897
18984THY    CM165073   7.174   0.920   5.704 -0.3384 -0.4336 -0.3891
18984THY    HM165074   7.127   0.837   5.757 -2.0877 -2.1945 -0.5865
18984THY    HM265075   7.200   1.000   5.775  0.9725 -0.4830 -0.7435
18984THY    HM365076   7.267   0.879   5.664 -0.5568 -0.8931 -0.4365
18984THY    CA665077   7.027   0.855   5.517  0.5531 -0.1799  0.5094
18984THY    HA665078   7.035   0.754   5.556 -1.1935 -1.6853 -0.2669
18985THY      O65079   1.686   5.140   7.703 -0.8399 -0.3796  0.1164
18985THY     HO65080   1.691   5.061   7.646 -1.1346 -0.4519  0.1496
18985THY    CA165081   1.578   5.106   7.773  0.5705 -0.4717 -0.1256
18985THY    CA265082   1.505   5.192   7.865 -0.2385 -0.4333  0.3583
18985THY    CP165083   1.541   5.344   7.860  0.6936  0.3759  0.0307
18985THY    HP165084   1.619   5.353   7.784  0.7157  0.3337 -0.5075
18985THY    CP265085   1.582   5.394   7.998 -0.2003 -0.1447 -0.3217
18985THY    HP265086   1.651   5.479   7.992 -0.7570 -0.8756  0.0859
18985THY    HP365087   1.636   5.314   8.050 -0.2586  1.1972  0.4803
18985THY    HP465088   1.494   5.421   8.058 -0.5048  0.5930 -2.7284
18985THY    CP365089   1.433   5.427   7.804 -0.3608 -0.6205  0.2094
18985THY    HP565090   1.341   5.406   7.860 -0.3126 -0.0893  1.3329
18985THY    HP665091   1.412   5.406   7.698 -2.0139  0.1336 -2.3905
18985THY    HP765092   1.454   5.534   7.816 -1.1472  0.5835  0.2477
18985THY    CA365093   1.411   5.138   7.957  1.1879  0.1712 -0.7156
18985THY    HA365094   1.369   5.204   8.033  0.2635 -0.7810 -0.1747
18985THY    CA465095   1.372   5.007   7.931  0.0022 -0.6012 -0.3718
18985THY    HA465096   1.293   4.964   7.991  0.5879 -0.6619 -1.5564
18985THY    CA565097   1.440   4.922   7.846  0.1127 -0.4966 -0.9538
18985THY    CM165098   1.389   4.784   7.825  0.6429  0.4812  1.1990
18985THY    HM165099   1.422   4.739   7.731  0.7381  1.0380  0.0799
18985THY    HM265100   1.280   4.771   7.824  0.8332  0.1740 -0.7032
18985THY    HM365101   1.431   4.726   7.908 -1.1235  0.9991  0.5801
18985THY    CA665102   1.550   4.972   7.774  0.7192  0.4964  0.3011
18985THY    HA665103   1.600   4.901   7.708 -0.4183 -0.1636  0.0890
18986THY      O65104   3.262   5.691   6.652  0.3564 -0.0429  0.1199
18986THY     HO65105   3.211   5.619   6.611  0.8772 -1.1987  0.3901
18986THY    CA165106   3.393   5.676   6.617  1.0265  0.4236 -0.0448
18986THY    CA265107   3.484   5.785   6.635  0.7376  0.5781 -0.6353
18986THY    CP165108   3.429   5.928   6.667  0.2953  0.3050  0.2399
18986THY    HP165109   3.327   5.928   6.707 -1.9338 -4.6123  1.3166
18986THY    CP265110   3.422   5.997   6.533 -0.9020 -0.1681  0.5583
18986THY    HP265111   3.414   6.107   6.537  0.1645 -1.5651  0.7207
18986THY    HP365112   3.342   5.946   6.477  0.3338 -0.8157 -0.7257
18986THY    HP465113   3.517   5.979   6.482 -1.0485  0.1422 -1.2941
18986THY    CP365114   3.522   6.012   6.765 -0.2993 -0.1465 -0.0147
18986THY    HP565115   3.489   6.116   6.771 -0.6623 -3.7611  0.2238
18986THY    HP665116   3.627   6.009   6.734 -0.1389  0.0729  1.9415
18986THY    HP765117   3.521   5.961   6.862 -0.5943  0.7600  1.6491
18986THY    CA365118   3.618   5.758   6.608 -0.8347 -0.3790  0.2610
18986THY    HA365119   3.689   5.839   6.620 -1.4336  0.6270  0.6561
18986THY    CA465120   3.657   5.628   6.567 -0.1148  0.5324 -0.7908
18986THY    HA465121   3.760   5.606   6.541 -0.1833 -1.4303  0.8897
18986THY    CA565122   3.570   5.519   6.556 -0.0234 -0.6038 -0.8277
18986THY    CM165123   3.620   5.382   6.524  0.1686 -0.1941 -0.5808
18986THY    HM165124   3.727   5.374   6.502  0.6163  2.0008 -1.2246
18986THY    HM265125   3.576   5.342   6.432  0.9380  0.3345 -2.7719
18986THY    HM365126   3.606   5.318   6.611  1.4177 -0.5051 -1.2967
18986THY    CA665127   3.438   5.545   6.580 -0.7648  0.2055  0.0871
18986THY    HA665128   3.367   5.463   6.576 -0.3000  1.3514 -0.4038
18987THY      O65129   4.147   1.516   2.324 -0.3915  0.5470 -0.1349
18987THY     HO65130   4.108   1.469   2.248  2.1868 -2.6598  2.4276
18987THY    CA165131   4.038   1.589   2.360  0.2044  0.5016  0.4846
18987THY    CA265132   4.008   1.636   2.491  0.2612  0.4161  0.7272
18987THY    CP165133   4.101   1.629   2.609  0.8610  0.2282  0.6221
18987THY    HP165134   4.197   1.599   2.566  0.0162 -0.0526 -1.9733
18987THY    CP265135   4.056   1.522   2.720 -0.2046 -0.2920  0.0205
18987THY    HP265136   3.995   1.440   2.680 -1.1552  0.2580  0.4395
18987THY    HP365137   3.992   1.576   2.792  0.8052  0.3147  0.4404
18987THY    HP465138   4.141   1.472   2.766 -0.5298 -0.5168 -0.7472
18987THY    CP365139   4.130   1.760   2.686 -0.5126  0.2799  0.3226
18987THY    HP565140   4.176   1.831   2.616  1.9570  1.3544 -0.0872
18987THY    HP665141   4.200   1.738   2.768 -0.9978  0.2493 -1.5408
18987THY    HP765142   4.043   1.806   2.733 -1.8898  0.8377 -2.6112
18987THY    CA365143   3.883   1.690   2.505 -0.0058 -0.6298 -0.0117
18987THY    HA365144   3.866   1.730   2.604  1.3247 -0.6455  0.6783
18987THY    CA465145   3.794   1.703   2.400  0.0199  0.6489  0.1411
18987THY    HA465146   3.700   1.754   2.421  0.3503 -0.2311  1.1692
18987THY    CA565147   3.832   1.664   2.269 -0.3489 -0.3198 -0.5039
18987THY    CM165148   3.732   1.692   2.156 -0.6991  0.2478 -0.6070
18987THY    HM165149   3.673   1.601   2.140 -1.1804 -0.6816 -0.1407
18987THY    HM265150   3.783   1.708   2.060 -0.3602  0.2443 -1.6069
18987THY    HM365151   3.670   1.779   2.177  1.9684  1.2654  1.1771
18987THY    CA665152   3.954   1.601   2.253  0.5204  0.2386  0.0633
18987THY    HA665153   3.985   1.573   2.152  2.1955 -0.1102  2.8008
18988THY      O65154   3.688   8.807   7.178 -0.1203 -0.5288 -0.3189
18988THY     HO65155   3.705   8.845   7.266 -1.0351 -0.8018  0.7933
18988THY    CA165156   3.619   8.908   7.124 -0.3305 -0.3346  0.4284
18988THY    CA265157   3.568   8.901   6.993  0.1804 -0.2525  0.0156
18988THY    CP165158   3.604   8.776   6.899  0.3066  0.1410  0.1239
18988THY    HP165159   3.702   8.736   6.929  0.8771 -2.2177 -0.4411
18988THY    CP265160   3.610   8.819   6.744  0.2279  0.1085  0.1831
18988THY    HP265161   3.673   8.907   6.728 -1.0054 -3.0271  0.6221
18988THY    HP365162   3.508   8.833   6.706 -0.4657  1.2734 -1.3295
18988THY    HP465163   3.654   8.738   6.685  0.4848  1.5353 -0.7455
18988THY    CP365164   3.494   8.659   6.909  0.0212 -0.0183 -0.5554
18988THY    HP565165   3.538   8.565   6.873  1.1896 -2.6616  0.8985
18988THY    HP665166   3.399   8.682   6.860 -0.6792  2.3433  2.1688
18988THY    HP765167   3.471   8.643   7.015 -2.0269 -0.1358  1.2370
18988THY    CA365168   3.496   9.012   6.941  0.3780  0.3683  0.5877
18988THY    HA365169   3.445   9.013   6.845  0.8204  0.1363  1.1606
18988THY    CA465170   3.468   9.118   7.025  0.3376  0.8529  0.3231
18988THY    HA465171   3.404   9.201   6.994 -1.4223  1.8065 -0.6059
18988THY    CA565172   3.522   9.130   7.152 -0.6454 -0.3172 -0.1340
18988THY    CM165173   3.491   9.251   7.244  0.1240 -0.0117  0.3217
18988THY    HM165174   3.442   9.324   7.178  0.1235  1.5719  1.8146
18988THY    HM265175   3.582   9.288   7.290  1.1597 -3.0270  1.8696
18988THY    HM365176   3.416   9.210   7.312  0.8272  0.3732 -0.3520
18988THY    CA665177   3.599   9.023   7.201 -0.1453  0.5310 -0.0260
18988THY    HA665178   3.641   9.029   7.301  1.5188 -0.0785 -0.9299
18989THY      O65179   2.354   3.250   1.969  0.2160  0.3594 -0.0081
18989THY     HO65180   2.287   3.320   1.978  1.0989 -1.0959  1.1164
18989THY    CA165181   2.284   3.138   1.945 -0.2947  0.4548  1.1280
18989THY    CA265182   2.343   3.011   1.946 -0.4403  0.0365 -0.3673
18989THY    CP165183   2.503   2.997   1.960 -0.0460  0.3647  0.0157
18989THY    HP165184   2.547   3.097   1.969  1.5400  0.3382 -0.6416
18989THY    CP265185   2.562   2.924   1.835 -0.3337 -0.0752  0.6039
18989THY    HP265186   2.671   2.933   1.835 -0.2872 -0.0145  0.0612
18989THY    HP365187   2.519   2.965   1.743 -0.0202 -0.0163  1.0857
18989THY    HP465188   2.535   2.819   1.845  0.5716  2.2145  0.5127
18989THY    CP365189   2.538   2.931   2.086  0.5644  0.0298 -0.3668
18989THY    HP565190   2.506   2.983   2.178  2.1309  0.4650 -0.1294
18989THY    HP665191   2.647   2.924   2.092  0.7745 -1.9919  0.5848
18989THY    HP765192   2.493   2.831   2.085  0.6558 -1.9557 -0.4224
18989THY    CA365193   2.256   2.903   1.922 -0.5825  0.0336  0.1290
18989THY    HA365194   2.288   2.799   1.929 -1.8834  1.8293 -0.2111
18989THY    CA465195   2.118   2.923   1.910  0.0317 -0.2929  0.0171
18989THY    HA465196   2.052   2.837   1.912  0.5049  0.5310 -0.3420
18989THY    CA565197   2.066   3.051   1.907  0.3497 -0.2729 -0.6208
18989THY    CM165198   1.919   3.069   1.915  0.4750  0.4001 -0.6879
18989THY    HM165199   1.882   3.165   1.954 -0.9515 -1.4356 -0.4388
18989THY    HM265200   1.863   2.991   1.969 -2.8830 -0.6626  0.7908
18989THY    HM365201   1.876   3.058   1.815  0.7494  0.3160 -1.0165
18989THY    CA665202   2.148   3.162   1.926 -0.1027  0.2791  0.1923
18989THY    HA665203   2.110   3.263   1.935 -1.8621  0.4428 -0.4444
18990THY      O65204   7.768   5.213   3.967  0.2722  0.3332 -0.1233
18990THY     HO65205   7.716   5.131   3.968 -2.7542 -3.0036  1.4849
18990THY    CA165206   7.773   5.242   3.838 -0.0983 -0.0025  0.3800
18990THY    CA265207   7.795   5.376   3.791  0.3795 -0.1483 -0.7291
18990THY    CP165208   7.819   5.493   3.889  0.2705  0.1839  0.2417
18990THY    HP165209   7.835   5.459   3.992 -1.6260  0.0337 -1.2368
18990THY    CP265210   7.702   5.599   3.891  0.2324  0.4352  0.4458
18990THY    HP265211   7.732   5.682   3.956  0.8908  0.5124  0.1543
18990THY    HP365212   7.604   5.562   3.923  0.0708  0.3049  0.7623
18990THY    HP465213   7.687   5.641   3.791 -1.6025  1.1156  1.5354
18990THY    CP365214   7.953   5.564   3.862  0.4849 -0.0218  0.0624
18990THY    HP565215   8.025   5.481   3.867 -1.5701  0.7859 -1.7574
18990THY    HP665216   7.982   5.648   3.926  1.6451 -0.9409  0.3883
18990THY    HP765217   7.950   5.601   3.759 -3.4947  0.5108  1.6554
18990THY    CA365218   7.795   5.399   3.655 -0.6253 -0.6196  0.2736
18990THY    HA365219   7.805   5.503   3.625  0.4195 -3.6982 -0.6118
18990THY    CA465220   7.783   5.287   3.564 -0.2089  0.1436 -0.0413
18990THY    HA465221   7.773   5.312   3.458 -2.2257  0.3793  0.3196
18990THY    CA565222   7.769   5.159   3.613  0.2896 -0.1795  0.1026
18990THY    CM165223   7.772   5.054   3.505 -0.0039  0.7570 -0.4094
18990THY    HM165224   7.877   5.053   3.471 -0.5798 -1.0957 -0.3014
18990THY    HM265225   7.708   5.076   3.420  0.2279 -0.2944 -3.3139
18990THY    HM365226   7.755   4.951   3.538  0.8442  1.7855 -0.2493
18990THY    CA665227   7.769   5.134   3.750 -0.1416 -0.4452 -0.3052
18990THY    HA665228   7.772   5.031   3.784  0.5480 -0.4848 -0.3029
18991THY      O65229   8.500   1.022   1.558  0.1063 -0.1579 -0.2245
18991THY     HO65230   8.457   0.936   1.571 -2.1477 -3.4787  0.1741
18991THY    CA165231   8.423   1.122   1.622  0.7429  0.9396  0.3722
18991THY    CA265232   8.480   1.244   1.653  0.4882 -0.9551  0.0144
18991THY    CP165233   8.618   1.285   1.598  0.0482 -0.2209 -0.6381
18991THY    HP165234   8.630   1.237   1.500  3.1851  0.0763 -0.6811
18991THY    CP265235   8.725   1.237   1.694  0.1939 -0.0118 -0.4597
18991THY    HP265236   8.824   1.279   1.673 -0.0622 -0.1206  0.1012
18991THY    HP365237   8.742   1.129   1.682  0.0630 -2.1516 -0.2909
18991THY    HP465238   8.701   1.262   1.798  1.1757  1.0523 -3.4728
18991THY    CP365239   8.629   1.434   1.573 -0.4161  0.0390 -0.1012
18991THY    HP565240   8.636   1.497   1.663  0.0659 -1.5849  2.3221
18991THY    HP665241   8.541   1.468   1.518 -0.5362 -0.3582 -1.0307
18991THY    HP765242   8.722   1.454   1.517  0.2133  1.3321  0.7442
18991THY    CA365243   8.415   1.330   1.748  0.2109 -0.0634 -0.1693
18991THY    HA365244   8.464   1.420   1.784  1.2493 -0.7348 -0.4454
18991THY    CA465245   8.287   1.304   1.793  0.5114 -0.0929  1.5689
18991THY    HA465246   8.240   1.378   1.856 -0.7064  0.4348  0.4007
18991THY    CA565247   8.229   1.181   1.759  0.0362 -0.0873 -0.1881
18991THY    CM165248   8.093   1.148   1.808  0.1816 -0.2515 -0.9331
18991THY    HM165249   8.088   1.143   1.917 -1.0988 -0.2247  0.3160
18991THY    HM265250   8.064   1.048   1.775 -0.9889 -1.3069 -0.2731
18991THY    HM365251   8.012   1.212   1.770  0.3696  0.6180 -0.1522
18991THY    CA665252   8.296   1.082   1.676  0.2002  1.2185 -0.0951
18991THY    HA665253   8.249   0.985   1.659  1.2009  1.7389 -0.6841
18992THY      O65254   3.126   5.475   6.491 -0.4141  0.0386 -0.5319
18992THY     HO65255   3.124   5.468   6.394 -3.2877 -0.1475  1.1229
18992THY    CA165256   3.118   5.346   6.531  0.0706 -0.1948 -0.2006
18992THY    CA265257   3.027   5.293   6.627 -0.7801 -0.2186  0.8868
18992THY    CP165258   2.929   5.383   6.703  0.4951 -0.3096  0.7050
18992THY    HP165259   2.912   5.469   6.637  0.2396  0.4262  1.2266
18992THY    CP265260   2.986   5.438   6.830 -1.2957 -0.0939  0.0788
18992THY    HP265261   3.071   5.505   6.811 -1.7192 -1.6286  0.2273
18992THY    HP365262   3.029   5.352   6.883 -1.5080 -1.2584 -0.7617
18992THY    HP465263   2.914   5.491   6.893  1.0125  1.5551  1.4416
18992THY    CP365264   2.797   5.315   6.728 -0.7955  0.3042 -0.2546
18992THY    HP565265   2.729   5.400   6.745  0.6290 -3.2772  1.8611
18992THY    HP665266   2.793   5.242   6.809 -0.4216  1.7785  1.2914
18992THY    HP765267   2.765   5.266   6.636 -2.7966  0.1960  1.1096
18992THY    CA365268   3.028   5.153   6.647  0.3119  0.6099  0.5630
18992THY    HA365269   2.953   5.104   6.709  0.1335 -1.8809 -2.6601
18992THY    CA465270   3.123   5.075   6.581 -0.3456 -0.1514  0.8062
18992THY    HA465271   3.136   4.969   6.602 -0.0122  0.6137  0.9839
18992THY    CA565272   3.209   5.122   6.490 -0.5647 -0.1114 -0.1249
18992THY    CM165273   3.310   5.039   6.420 -0.0251 -0.1910 -0.4246
18992THY    HM165274   3.358   4.975   6.494  1.2456 -0.4737  0.1678
18992THY    HM265275   3.377   5.096   6.355  1.8199  2.2159  0.2982
18992THY    HM365276   3.262   4.980   6.340 -0.5451 -0.0783 -0.1591
18992THY    CA665277   3.194   5.262   6.456  0.2268 -0.4006  0.5419
18992THY    HA665278   3.261   5.308   6.383  1.6934  1.2440  1.1451
18993THY      O65279   3.954   4.835   6.127  0.2997 -0.7350 -0.8785
18993THY     HO65280   4.045   4.862   6.108  0.8520  2.2811 -0.3074
18993THY    CA165281   3.864   4.922   6.055 -0.0935 -0.5173  1.0903
18993THY    CA265282   3.725   4.905   6.053 -0.3026 -0.8412  0.0564
18993THY    CP165283   3.653   4.795   6.137 -0.4759 -0.2424 -0.1913
18993THY    HP165284   3.724   4.711   6.132  0.4982 -0.1693  0.6184
18993THY    CP265285   3.524   4.743   6.076  0.3801  0.4690  0.4181
18993THY    HP265286   3.476   4.661   6.132 -0.6739 -0.5253  0.3394
18993THY    HP365287   3.535   4.708   5.973 -1.3963 -0.0003  1.1568
18993THY    HP465288   3.445   4.819   6.075  0.3352  0.5391  0.3724
18993THY    CP365289   3.629   4.849   6.282 -0.3349  0.7277  0.1325
18993THY    HP565290   3.725   4.867   6.333 -0.3403  0.4785  0.8744
18993THY    HP665291   3.571   4.770   6.331  3.7245  1.7406 -2.5635
18993THY    HP765292   3.568   4.940   6.278 -0.2289  0.9008  0.2118
18993THY    CA365293   3.642   4.981   5.970  0.3877 -0.9114 -0.6092
18993THY    HA365294   3.534   4.973   5.963  0.2632  0.1531  0.0059
18993THY    CA465295   3.715   5.075   5.897 -0.3129 -0.0898  0.3472
18993THY    HA465296   3.657   5.136   5.828  0.4031 -1.9717 -1.0100
18993THY    CA565297   3.854   5.090   5.900  0.2020  0.3480 -0.1783
18993THY    CM165298   3.920   5.209   5.830 -0.1815 -0.5262  0.5784
18993THY    HM165299   3.845   5.285   5.805  0.0001 -4.3121 -0.3041
18993THY    HM265300   3.973   5.174   5.740 -1.1022 -1.1543  0.7729
18993THY    HM365301   4.000   5.253   5.892 -1.3268  2.2978 -1.0904
18993THY    CA665302   3.933   5.015   5.979 -0.2466 -0.1763  0.9727
18993THY    HA665303   4.041   5.022   5.979 -0.1888 -0.7223  0.1942
18994THY      O65304   6.637   4.740   6.053  0.1668  0.3327 -0.4786
18994THY     HO65305   6.551   4.757   6.094  0.6317  1.6898 -1.2239
18994THY    CA165306   6.640   4.751   5.912  0.5141 -1.0163 -0.2252
18994THY    CA265307   6.762   4.752   5.838  0.2786 -0.1521 -0.4633
18994THY    CP165308   6.902   4.751   5.906 -0.3339 -0.0739 -0.6055
18994THY    HP165309   6.866   4.746   6.010 -0.0979 -0.0202 -1.3150
18994THY    CP265310   6.964   4.885   5.860  0.5598  0.1198 -0.1750
18994THY    HP265311   6.987   4.884   5.753  0.0848  0.0190 -1.3666
18994THY    HP365312   7.050   4.898   5.927 -0.0019  1.1530 -1.4865
18994THY    HP465313   6.897   4.968   5.885  1.4669  0.6983  0.4105
18994THY    CP365314   6.982   4.633   5.853  0.1419  0.3143  0.5862
18994THY    HP565315   7.072   4.617   5.915 -1.1227  2.1475  0.2210
18994THY    HP665316   7.013   4.648   5.749 -2.9461 -1.0835 -1.7046
18994THY    HP765317   6.928   4.538   5.841 -0.6283 -1.6540  1.2352
18994THY    CA365318   6.753   4.759   5.694 -0.0792 -0.2174 -0.2475
18994THY    HA365319   6.839   4.754   5.629 -0.4336 -0.7912  0.7401
18994THY    CA465320   6.621   4.768   5.634 -0.1126  0.7364  0.6699
18994THY    HA465321   6.608   4.776   5.527 -0.7503  0.5845 -1.5762
18994THY    CA565322   6.504   4.783   5.713  0.3609  0.3573  0.2489
18994THY    CM165323   6.370   4.794   5.650  0.0324 -0.6932  0.1229
18994THY    HM165324   6.371   4.866   5.567  0.6585  0.1499  1.1128
18994THY    HM265325   6.291   4.811   5.725  1.1659  1.3979 -2.9890
18994THY    HM365326   6.362   4.692   5.610  0.3395 -0.7420  0.1184
18994THY    CA665327   6.519   4.771   5.849  0.2458 -0.3742  0.0758
18994THY    HA665328   6.428   4.765   5.909 -1.0974 -2.3391 -0.2355
18995THY      O65329   5.665   6.217   5.958 -0.1723  0.7939  0.0229
18995THY     HO65330   5.616   6.148   6.005  0.7978  1.5222 -0.1971
18995THY    CA165331   5.644   6.211   5.820 -0.3038 -0.1649 -0.3281
18995THY    CA265332   5.703   6.303   5.733 -0.0843 -0.3753 -0.0148
18995THY    CP165333   5.782   6.420   5.794  0.5124 -0.0610  0.5378
18995THY    HP165334   5.751   6.449   5.896  1.9627  0.3219  0.7936
18995THY    CP265335   5.767   6.558   5.719 -0.0354 -0.1768  0.3040
18995THY    HP265336   5.660   6.576   5.703 -0.3471  0.4875 -0.8611
18995THY    HP365337   5.816   6.538   5.623  0.6184  0.4810 -1.4720
18995THY    HP465338   5.807   6.644   5.773  1.8494 -0.4956 -0.3351
18995THY    CP365339   5.930   6.380   5.813  0.5300 -0.1308 -0.6509
18995THY    HP565340   5.947   6.288   5.871 -0.6168 -1.6022 -1.8335
18995THY    HP665341   5.979   6.466   5.860  2.2027 -1.2041 -0.9820
18995THY    HP765342   5.981   6.355   5.720  1.0260 -0.2326  0.6570
18995THY    CA365343   5.670   6.291   5.594 -0.1113 -0.7398 -0.1839
18995THY    HA365344   5.703   6.366   5.523 -0.6444 -1.0497 -0.2378
18995THY    CA465345   5.596   6.191   5.543  0.0275 -0.5186  0.1055
18995THY    HA465346   5.583   6.181   5.436  0.4956 -0.6133  0.5000
18995THY    CA565347   5.532   6.107   5.635 -0.1225 -0.8648  0.3890
18995THY    CM165348   5.428   6.007   5.586 -0.0056  0.1498  0.7124
18995THY    HM165349   5.369   5.969   5.670 -1.4199 -1.6486 -1.3959
18995THY    HM265350   5.479   5.920   5.543 -0.1043 -0.1100  0.7786
18995THY    HM365351   5.349   6.042   5.518 -1.2105  0.5785 -1.0074
18995THY    CA665352   5.542   6.129   5.774  0.0414 -0.2255  0.2090
18995THY    HA665353   5.474   6.083   5.844 -0.1151  1.1394  2.3651
18996THY      O65354   3.383   7.537   5.532 -0.5333 -0.2677  0.7749
18996THY     HO65355   3.361   7.626   5.501 -0.6200  0.7986  1.1389
18996THY    CA165356   3.449   7.476   5.430 -0.1736 -0.2344 -0.2031
18996THY    CA265357   3.480   7.339   5.432 -0.1525  0.2999 -0.4461
18996THY    CP165358   3.430   7.246   5.544 -0.4088  0.2253 -0.0929
18996THY    HP165359   3.372   7.311   5.611 -1.5402  0.9171 -1.7395
18996THY    CP265360   3.538   7.177   5.613 -1.2957  0.5535 -0.6325
18996THY    HP265361   3.616   7.251   5.635  0.5038 -0.9666 -1.9695
18996THY    HP365362   3.580   7.109   5.537  0.8575 -0.4294  1.6617
18996THY    HP465363   3.504   7.117   5.699 -1.3791  1.0953  0.1780
18996THY    CP365364   3.328   7.144   5.491 -0.3513  0.3970 -0.4331
18996THY    HP565365   3.297   7.075   5.570 -0.3299  0.3139 -0.5382
18996THY    HP665366   3.372   7.085   5.410 -0.3351  1.1020 -1.4176
18996THY    HP765367   3.245   7.202   5.449  1.3831 -3.2089 -0.2909
18996THY    CA365368   3.549   7.285   5.319 -0.6294 -0.2952  0.2028
18996THY    HA365369   3.582   7.181   5.316  1.8251  1.5420  0.8274
18996THY    CA465370   3.591   7.373   5.216 -0.6290  0.1335 -0.4117
18996THY    HA465371   3.655   7.338   5.135  0.7913 -0.0990  2.4451
18996THY    CA565372   3.565   7.509   5.219  0.1302  0.6999 -0.0655
18996THY    CM165373   3.610   7.600   5.114 -0.7731  0.3247  0.1815
18996THY    HM165374   3.529   7.669   5.089 -1.6551  2.7589  0.1460
18996THY    HM265375   3.667   7.557   5.031 -0.0234  0.9151  0.0090
18996THY    HM365376   3.689   7.661   5.160  0.1055 -0.0804 -0.6266
18996THY    CA665377   3.491   7.556   5.330 -0.2148 -0.4681  0.6848
18996THY    HA665378   3.457   7.659   5.336 -2.5189  1.3797 -0.0955
18997THY      O65379   4.483   8.174   2.289  0.1856 -0.6290 -0.2274
18997THY     HO65380   4.508   8.135   2.374 -0.1533  1.4574  3.5673
18997THY    CA165381   4.550   8.290   2.285  0.0456 -0.1638 -0.2947
18997THY    CA265382   4.515   8.396   2.199  0.1154  0.4936  0.3511
18997THY    CP165383   4.391   8.371   2.115  0.0041  0.1778 -0.5278
18997THY    HP165384   4.309   8.332   2.177  0.0958  0.7032  0.1028
18997THY    CP265385   4.411   8.265   2.005 -0.0273  0.3613  0.5085
18997THY    HP265386   4.483   8.300   1.931  0.2283 -0.0586 -0.8568
18997THY    HP365387   4.321   8.248   1.945  0.3477 -0.8849  2.5792
18997THY    HP465388   4.445   8.169   2.046 -0.8532 -1.1678 -0.4665
18997THY    CP365389   4.324   8.504   2.068  0.3319  0.0500  0.0824
18997THY    HP565390   4.380   8.573   2.004 -1.2365 -0.3312  1.0589
18997THY    HP665391   4.286   8.572   2.145  0.6443  1.6874 -1.5217
18997THY    HP765392   4.235   8.469   2.015  0.7834 -0.5955 -0.1181
18997THY    CA365393   4.601   8.508   2.184  0.4616  0.1356 -0.6714
18997THY    HA365394   4.591   8.582   2.106  1.2147  0.7246  0.0782
18997THY    CA465395   4.721   8.511   2.268  0.6508 -0.3970 -0.5245
18997THY    HA465396   4.785   8.599   2.267 -0.4166  0.6615  0.2807
18997THY    CA565397   4.755   8.405   2.349 -0.7245 -0.3046  0.5747
18997THY    CM165398   4.893   8.406   2.412  1.1931  0.2902 -0.4690
18997THY    HM165399   4.912   8.326   2.485 -0.7264  1.6335  0.2277
18997THY    HM265400   4.917   8.501   2.460 -0.4620 -1.6853  1.0270
18997THY    HM365401   4.969   8.402   2.333  0.8313 -0.0250 -1.5748
18997THY    CA665402   4.679   8.288   2.345 -0.8916  0.2143  0.0262
18997THY    HA665403   4.693   8.201   2.408 -3.0628 -0.8815 -1.2085
18998THY      O65404   0.479   2.897   6.612  0.3745  0.1318 -0.0369
18998THY     HO65405   0.537   2.920   6.687  0.8846 -0.6945  1.5328
18998THY    CA165406   0.508   2.769   6.589  0.6068  0.8106  0.1945
18998THY    CA265407   0.524   2.702   6.469 -0.0141  1.3532  0.0125
18998THY    CP165408   0.499   2.775   6.339 -0.6549  0.3282 -0.8338
18998THY    HP165409   0.408   2.833   6.356 -1.0446  1.7284 -1.7962
18998THY    CP265410   0.460   2.687   6.217  0.5222 -0.6017  0.4144
18998THY    HP265411   0.366   2.632   6.236  1.0091  1.1711  0.1339
18998THY    HP365412   0.537   2.612   6.199 -0.3387  1.3090 -1.0145
18998THY    HP465413   0.444   2.751   6.129  1.6268  0.1992  1.8354
18998THY    CP365414   0.611   2.874   6.306  0.0207 -0.0728 -0.1790
18998THY    HP565415   0.593   2.940   6.221 -2.4583  0.7533  0.3203
18998THY    HP665416   0.707   2.822   6.291  1.4033 -0.9040  2.4333
18998THY    HP765417   0.623   2.939   6.393  0.8995  1.2938 -2.0603
18998THY    CA365418   0.564   2.569   6.475 -0.5393 -0.2133  0.2560
18998THY    HA365419   0.588   2.509   6.387  0.3559  0.4605 -0.4096
18998THY    CA465420   0.594   2.513   6.601 -0.4307 -0.0462 -0.3012
18998THY    HA465421   0.628   2.409   6.605 -0.0781  1.1784 -0.1569
18998THY    CA565422   0.565   2.577   6.719 -0.1697 -0.2103 -0.3398
18998THY    CM165423   0.568   2.493   6.843 -0.3015 -0.4748 -0.0055
18998THY    HM165424   0.490   2.526   6.913 -0.0025 -1.0930  2.1430
18998THY    HM265425   0.669   2.486   6.887 -0.3077 -0.2536  1.1300
18998THY    HM365426   0.538   2.389   6.826 -0.9339  0.3447  0.0287
18998THY    CA665427   0.513   2.706   6.709 -0.5412  0.2588  0.1691
18998THY    HA665428   0.482   2.756   6.800  2.3173  1.3164  0.2260
18999THY      O65429   4.308   5.505   3.338  0.5276 -0.2549  0.7294
18999THY     HO65430   4.395   5.461   3.339  1.3414 -0.6017  2.2573
18999THY    CA165431   4.221   5.399   3.333  0.2795  0.6328  0.1518
18999THY    CA265432   4.078   5.425   3.336 -0.1969 -0.2153  0.1851
18999THY    CP165433   4.024   5.566   3.343 -0.3256 -0.1918 -0.6296
18999THY    HP165434   4.093   5.639   3.387 -0.8055 -0.2201 -0.1518
18999THY    CP265435   3.905   5.590   3.421  0.3158  0.5698 -0.2505
18999THY    HP265436   3.935   5.611   3.525  0.7154  0.5917 -0.9031
18999THY    HP365437   3.827   5.513   3.432 -1.9826 -0.0425  1.8499
18999THY    HP465438   3.852   5.681   3.390 -1.7295  1.4701 -1.0835
18999THY    CP365439   3.997   5.608   3.198  0.3438  0.2835  0.3464
18999THY    HP565440   3.925   5.545   3.144 -1.2839 -0.0671  2.3959
18999THY    HP665441   4.087   5.606   3.137 -0.6833 -1.3183 -2.2814
18999THY    HP765442   3.971   5.714   3.190 -0.4408 -1.8054  0.0472
18999THY    CA365443   3.990   5.317   3.333  0.6003  0.1851 -0.0006
18999THY    HA365444   3.883   5.332   3.342  0.6762  0.0113  0.6670
18999THY    CA465445   4.048   5.187   3.320 -0.5471 -1.0974 -0.0779
18999THY    HA465446   3.988   5.097   3.327 -0.7736  1.4327  0.1910
18999THY    CA565447   4.184   5.162   3.321  1.0439  0.4834  0.2225
18999THY    CM165448   4.231   5.027   3.306 -0.1646 -0.4720  0.4799
18999THY    HM165449   4.340   5.023   3.314 -0.2605  1.0793  0.2191
18999THY    HM265450   4.197   4.980   3.213 -1.9254 -0.0914  0.9104
18999THY    HM365451   4.195   4.954   3.380  0.1354 -2.0651 -1.3615
18999THY    CA665452   4.276   5.268   3.328 -0.6235 -0.1126  0.4543
18999THY    HA665453   4.384   5.255   3.334 -0.4625  0.8268  1.9582
19000THY      O65454   5.955   4.019   1.959 -0.1753 -0.4155 -0.4347
19000THY     HO65455   5.884   4.029   1.894  1.0881 -1.8173 -0.3034
19000THY    CA165456   6.034   4.129   1.955 -0.5508  0.2232 -0.3310
19000THY    CA265457   6.149   4.135   2.033  1.0890 -0.5717 -0.4375
19000THY    CP165458   6.174   4.020   2.132 -0.3052  0.4928  0.3205
19000THY    HP165459   6.118   3.932   2.099  0.2346  0.8726 -0.1794
19000THY    CP265460   6.133   4.071   2.272 -0.0100 -0.3834 -0.3690
19000THY    HP265461   6.213   4.135   2.307 -0.6400 -0.3757  0.4254
19000THY    HP365462   6.110   3.989   2.341 -0.2824  1.4353  1.1817
19000THY    HP465463   6.043   4.131   2.251 -2.2447 -1.6139 -3.7868
19000THY    CP365464   6.322   3.986   2.154 -0.0394 -0.5190  0.0030
19000THY    HP565465   6.380   4.074   2.185 -2.3477  1.5098  0.8900
19000THY    HP665466   6.357   3.957   2.054  3.0506  0.0584  1.2216
19000THY    HP765467   6.328   3.907   2.229 -1.4711  0.3070  0.6511
19000THY    CA365468   6.225   4.250   2.021 -0.0741  0.3574 -0.1345
19000THY    HA365469   6.317   4.264   2.077  0.9445 -1.5042  0.9945
19000THY    CA465470   6.196   4.349   1.929 -0.6465  0.8995 -0.2270
19000THY    HA465471   6.270   4.426   1.912  0.1325  1.0154 -0.9379
19000THY    CA565472   6.084   4.335   1.847 -0.1526 -0.0591  0.3680
19000THY    CM165473   6.063   4.434   1.741 -0.1394 -0.3519 -0.2010
19000THY    HM165474   6.129   4.521   1.749  0.2133 -2.0776 -0.2775
19000THY    HM265475   5.959   4.468   1.734 -0.7762 -1.6407 -2.2802
19000THY    HM365476   6.107   4.391   1.650  1.3466 -0.5634  1.5944
19000THY    CA665477   5.999   4.222   1.863 -0.2023 -0.0203 -0.0385
19000THY    HA665478   5.912   4.203   1.800 -0.9943  1.7666 -3.0310
19001THY      O65479   0.860   6.033   4.491 -1.1033  0.0069  0.2093
19001THY     HO65480   0.764   6.016   4.485 -0.9465  0.5623 -0.9735
19001THY    CA165481   0.895   6.115   4.387 -0.3586 -0.0469 -0.7898
19001THY    CA265482   1.030   6.148   4.356  0.7380 -0.2364  0.6689
19001THY    CP165483   1.139   6.083   4.451 -0.0032 -0.2595 -0.6372
19001THY    HP165484   1.108   5.984   4.484  0.2188 -0.1655 -0.6750
19001THY    CP265485   1.171   6.177   4.565 -0.2857 -1.4410 -0.5469
19001THY    HP265486   1.269   6.165   4.610 -0.0018 -1.9030 -0.0436
19001THY    HP365487   1.110   6.163   4.654  0.9992 -0.3472  0.5098
19001THY    HP465488   1.175   6.283   4.535  1.2723 -1.3944 -0.5698
19001THY    CP365489   1.267   6.069   4.373 -0.0658  0.5622  0.3903
19001THY    HP565490   1.306   6.169   4.347  1.2724 -1.3399 -0.5637
19001THY    HP665491   1.250   6.016   4.278 -1.9085  0.6390  0.7722
19001THY    HP765492   1.349   6.014   4.419  1.3338 -1.5247  0.6022
19001THY    CA365493   1.063   6.231   4.251 -0.0914 -0.0839  0.6553
19001THY    HA365494   1.165   6.246   4.219 -0.8684 -1.7702  2.7824
19001THY    CA465495   0.957   6.280   4.166  0.2152 -0.1564  0.1059
19001THY    HA465496   0.978   6.340   4.078  3.2603 -0.0562 -0.6490
19001THY    CA565497   0.818   6.260   4.203  0.0537  0.1058  1.3659
19001THY    CM165498   0.703   6.310   4.121  0.6435  0.0476  0.0406
19001THY    HM165499   0.619   6.240   4.112 -0.2715  0.0473  1.0988
19001THY    HM265500   0.738   6.333   4.020  1.2036 -0.0481 -1.1787
19001THY    HM365501   0.664   6.400   4.170  5.3758 -0.8955  2.9269
19001THY    CA665502   0.791   6.182   4.314 -0.4608 -0.3499  0.2172
19001THY    HA665503   0.686   6.165   4.336 -1.3688 -2.2962  2.7207
19002THY      O65504   0.588   4.013   2.289 -0.7865 -0.2961 -0.2367
19002THY     HO65505   0.566   3.944   2.225 -0.3574 -1.5319  0.7509
19002THY    CA165506   0.698   4.071   2.230  0.0717 -0.2442 -0.6658
19002THY    CA265507   0.744   4.200   2.274 -0.4058  0.1184  0.3862
19002THY    CP165508   0.667   4.279   2.382 -0.0201 -0.4572 -0.5058
19002THY    HP165509   0.561   4.259   2.361 -0.5159  1.9939 -0.6546
19002THY    CP265510   0.690   4.433   2.385 -0.4194  0.2876 -0.3709
19002THY    HP265511   0.672   4.484   2.290 -0.9366  0.1432 -0.8084
19002THY    HP365512   0.795   4.460   2.400 -0.2160  0.6480 -1.3201
19002THY    HP465513   0.632   4.485   2.463 -4.0004 -1.9883 -0.5325
19002THY    CP365514   0.689   4.220   2.521 -0.4484 -0.4846  0.8868
19002THY    HP565515   0.639   4.283   2.595 -1.7141 -1.1234  0.6685
19002THY    HP665516   0.798   4.218   2.530 -0.0416 -3.9462 -1.7432
19002THY    HP765517   0.649   4.118   2.534  3.0810 -0.8737 -0.6785
19002THY    CA365518   0.858   4.249   2.212 -0.3033 -0.2237 -0.7402
19002THY    HA365519   0.898   4.348   2.232  1.6391  2.8702 -1.9927
19002THY    CA465520   0.921   4.180   2.108 -0.1922  0.4755 -0.3159
19002THY    HA465521   1.011   4.222   2.062 -0.9044 -0.3030  0.4024
19002THY    CA565522   0.870   4.051   2.063 -1.0444  0.3067  0.1426
19002THY    CM165523   0.941   3.984   1.954  0.3630  0.1234  1.3569
19002THY    HM165524   0.975   4.060   1.883 -1.7639 -0.9541  1.3963
19002THY    HM265525   0.872   3.922   1.895 -0.4760  3.8701 -1.6354
19002THY    HM365526   1.029   3.927   1.982 -1.2714  2.5153 -0.1808
19002THY    CA665527   0.760   3.998   2.127  1.0205 -0.7501 -0.2840
19002THY    HA665528   0.734   3.897   2.095 -1.2864  0.7437 -0.2195
19003THY      O65529   3.906   4.356   1.808  0.1857  0.3679 -0.3810
19003THY     HO65530   3.879   4.448   1.824 -0.1123  2.8790 -0.8494
19003THY    CA165531   3.965   4.340   1.928  1.1120  0.2371  0.5124
19003THY    CA265532   4.066   4.249   1.950 -0.1381 -0.1232 -1.1336
19003THY    CP165533   4.130   4.178   1.829 -0.5580 -0.3448 -0.5373
19003THY    HP165534   4.123   4.233   1.735  1.6376 -0.1050  0.2640
19003THY    CP265535   4.066   4.040   1.817 -0.2655 -0.1733 -0.7132
19003THY    HP265536   4.074   4.004   1.714  1.6142 -1.2918  2.4533
19003THY    HP365537   3.958   4.048   1.833 -0.4254 -0.5715 -1.8088
19003THY    HP465538   4.107   3.962   1.883  2.1826 -0.1422  0.4876
19003THY    CP365539   4.287   4.153   1.836  0.7805  0.0795 -0.3891
19003THY    HP565540   4.338   4.241   1.876  1.8351 -0.9963 -0.4871
19003THY    HP665541   4.327   4.135   1.735  2.4171  1.0489 -2.6918
19003THY    HP765542   4.304   4.071   1.907 -1.9051 -0.4581 -1.5221
19003THY    CA365543   4.116   4.234   2.076 -0.2600  0.0653 -0.1765
19003THY    HA365544   4.193   4.161   2.101  0.2580  0.1663  0.3906
19003THY    CA465545   4.071   4.314   2.181  0.2786 -0.3067  0.1022
19003THY    HA465546   4.113   4.307   2.280 -1.0098  0.2531  0.0142
19003THY    CA565547   3.975   4.416   2.161 -0.2717  0.3190  0.6934
19003THY    CM165548   3.922   4.508   2.258  0.4963 -0.7234 -0.4123
19003THY    HM165549   3.815   4.528   2.256  0.3706  0.4745 -0.8689
19003THY    HM265550   3.976   4.603   2.257 -1.0617  0.2066  0.5285
19003THY    HM365551   3.936   4.463   2.357 -0.2874 -0.5981 -0.3903
19003THY    CA665552   3.919   4.423   2.029  1.2185  0.0833 -0.1064
19003THY    HA665553   3.846   4.498   1.999  1.3640 -2.1508 -0.8016
19004THY      O65554   6.983   2.794   3.655  0.2848 -0.6268  0.4523
19004THY     HO65555   6.894   2.772   3.622 -0.2626  1.6725 -1.1421
19004THY    CA165556   7.070   2.710   3.586  0.6508 -0.0922  0.2477
19004THY    CA265557   7.188   2.763   3.525  0.2326  0.1341 -0.2892
19004THY    CP165558   7.233   2.911   3.541  0.3804  0.4008  0.4377
19004THY    HP165559   7.148   2.973   3.572 -0.1177  0.6013 -0.3378
19004THY    CP265560   7.299   2.968   3.420  1.0188 -0.2180  0.2858
19004THY    HP265561   7.241   2.966   3.327 -0.4164  0.6131 -2.1071
19004THY    HP365562   7.393   2.920   3.392  1.5100  0.1921  1.0025
19004THY    HP465563   7.328   3.070   3.448  2.1312 -0.0780 -0.0631
19004THY    CP365564   7.327   2.924   3.663 -0.6630  0.4663  0.0213
19004THY    HP565565   7.423   2.882   3.630 -1.3107 -1.1442 -0.2847
19004THY    HP665566   7.287   2.872   3.750 -4.2450 -0.8196  0.3512
19004THY    HP765567   7.360   3.027   3.681  0.2776  1.5827 -0.4559
19004THY    CA365568   7.265   2.672   3.450  0.0239  0.3148  0.4233
19004THY    HA365569   7.358   2.712   3.412 -0.4088 -0.8547  0.3574
19004THY    CA465570   7.229   2.538   3.427 -0.0956  0.0783 -0.3736
19004THY    HA465571   7.291   2.473   3.366 -1.8560  0.1902 -2.2779
19004THY    CA565572   7.108   2.491   3.488 -0.3583  0.3169  0.3669
19004THY    CM165573   7.080   2.345   3.461 -0.3822 -0.0136  0.0636
19004THY    HM165574   7.045   2.321   3.360 -1.4139 -0.3154  2.4994
19004THY    HM265575   7.003   2.313   3.533  2.9237  2.6941 -2.6779
19004THY    HM365576   7.164   2.281   3.490 -0.6714 -1.0170 -0.8013
19004THY    CA665577   7.028   2.572   3.565  0.2074  0.1014  0.4832
19004THY    HA665578   6.942   2.528   3.615  0.6715 -0.5867 -1.2961
19005THY      O65579   7.945   0.179   2.517  0.1313  0.2309  0.9647
19005THY     HO65580   7.863   0.206   2.473  1.4079 -0.8337  3.4909
19005THY    CA165581   8.023   0.287   2.528  0.5107 -0.0684 -0.0330
19005THY    CA265582   8.161   0.282   2.555  0.3838 -0.4178  0.1315
19005THY    CP165583   8.234   0.151   2.571 -0.6617 -0.4626  0.4417
19005THY    HP165584   8.177   0.061   2.545 -1.9488  1.9472  0.4931
19005THY    CP265585   8.272   0.125   2.725 -0.3252 -0.3566  0.0291
19005THY    HP265586   8.343   0.198   2.764  0.1706 -1.6284  0.2524
19005THY    HP365587   8.312   0.024   2.739 -0.8960 -0.2073 -0.1856
19005THY    HP465588   8.179   0.140   2.781 -0.6487 -0.3379 -1.8036
19005THY    CP365589   8.358   0.138   2.481 -0.1299 -0.1603  0.0223
19005THY    HP565590   8.335   0.162   2.376  0.0467 -0.2354 -0.1323
19005THY    HP665591   8.402   0.038   2.489 -0.5004  2.5020  0.0139
19005THY    HP765592   8.435   0.203   2.526  0.8780  0.2474 -1.4048
19005THY    CA365593   8.235   0.401   2.560 -0.5003  0.4282  0.7445
19005THY    HA365594   8.342   0.397   2.580 -0.7679  1.7738 -1.4828
19005THY    CA465595   8.172   0.526   2.532 -0.1804 -0.9512  0.0496
19005THY    HA465596   8.227   0.619   2.520 -2.6856 -1.9699  1.4797
19005THY    CA565597   8.033   0.534   2.514  0.0886  0.5416 -0.1443
19005THY    CM165598   7.964   0.654   2.478  0.2810  0.2521 -0.2052
19005THY    HM165599   7.938   0.661   2.372  0.2106  0.1601 -1.5828
19005THY    HM265600   8.007   0.747   2.516  1.1970 -1.3900  0.0871
19005THY    HM365601   7.861   0.647   2.515 -0.1376 -1.0821 -1.9062
19005THY    CA665602   7.961   0.416   2.504 -1.1878  0.8587  0.0405
19005THY    HA665603   7.856   0.419   2.476 -1.5680  1.7856 -2.1850
19006THY      O65604   5.231   4.544   6.019  0.0844  0.0771  0.6393
19006THY     HO65605   5.269   4.547   6.108  1.9252 -0.6537  0.2231
19006THY    CA165606   5.173   4.663   5.986 -0.2406 -0.4646  0.0030
19006THY    CA265607   5.072   4.673   5.890 -0.0601 -0.9661  1.2504
19006THY    CP165608   5.026   4.550   5.805 -0.8097 -0.1620 -1.0164
19006THY    HP165609   5.075   4.456   5.831  1.0588  0.3622  0.0437
19006THY    CP265610   5.067   4.575   5.657  0.2933  0.4355  0.8079
19006THY    HP265611   4.996   4.647   5.614 -1.3049  0.7446 -0.5152
19006THY    HP365612   5.054   4.484   5.598  0.9439 -1.3833  1.8457
19006THY    HP465613   5.171   4.610   5.657  1.1739 -2.2517 -1.4145
19006THY    CP365614   4.876   4.540   5.831  0.0826  0.1555  0.6515
19006THY    HP565615   4.845   4.471   5.751  2.7301 -0.4262  0.0260
19006THY    HP665616   4.809   4.625   5.813 -3.9957  0.0917 -2.2605
19006THY    HP765617   4.850   4.495   5.927 -1.1081 -0.1669  0.6132
19006THY    CA365618   5.020   4.802   5.865 -0.4603 -0.2576 -0.1027
19006THY    HA365619   4.956   4.816   5.778  0.2470 -0.5405  1.6687
19006THY    CA465620   5.073   4.915   5.929  0.4827  0.0975  0.3169
19006THY    HA465621   5.034   5.015   5.910 -1.2010 -1.5479 -0.5756
19006THY    CA565622   5.177   4.903   6.025  0.4770 -0.3064  0.8427
19006THY    CM165623   5.228   5.027   6.097 -0.0893  0.4812 -0.3622
19006THY    HM165624   5.140   5.084   6.128 -0.0108 -0.1144  0.0997
19006THY    HM265625   5.281   5.089   6.024 -2.0592 -0.0827  0.7422
19006THY    HM365626   5.293   5.001   6.181  0.8574 -0.0875  0.1227
19006THY    CA665627   5.229   4.771   6.052 -0.5702 -0.2605  0.1066
19006THY    HA665628   5.312   4.756   6.121 -1.2881  0.5802 -0.0751
19007THY      O65629   6.084   3.144   2.026 -0.9353 -0.1018 -0.6288
19007THY     HO65630   6.157   3.130   1.963  0.0539  1.2635 -2.0104
19007THY    CA165631   6.135   3.220   2.124 -0.2667 -0.0956 -0.2263
19007THY    CA265632   6.096   3.208   2.262 -1.2610 -0.0531 -0.4034
19007THY    CP165633   5.991   3.111   2.309  1.2359  0.1191  0.1387
19007THY    HP165634   5.934   3.078   2.222  0.9699  0.6982 -0.9572
19007THY    CP265635   5.884   3.181   2.407 -0.2025 -0.2949  0.0843
19007THY    HP265636   5.932   3.205   2.503 -2.0952  0.2503  1.8652
19007THY    HP365637   5.798   3.117   2.430  0.1437 -0.3449 -0.4126
19007THY    HP465638   5.841   3.268   2.358 -2.2757 -0.0482 -0.7538
19007THY    CP365639   6.039   2.981   2.381 -0.0941  0.3994  0.1118
19007THY    HP565640   6.100   2.916   2.317  0.2643  0.7642  0.0890
19007THY    HP665641   5.948   2.929   2.413 -1.4438 -0.2936  1.8969
19007THY    HP765642   6.090   3.008   2.474 -0.2691  0.5381 -0.0359
19007THY    CA365643   6.164   3.289   2.350 -0.4852 -0.2918  0.7493
19007THY    HA365644   6.140   3.292   2.455 -0.5807 -0.3202  1.0537
19007THY    CA465645   6.266   3.372   2.316  0.4440 -0.5270  0.4286
19007THY    HA465646   6.311   3.450   2.378 -2.2732  0.5379  1.2762
19007THY    CA565647   6.298   3.390   2.181 -0.8099  0.4906 -0.3017
19007THY    CM165648   6.395   3.495   2.145 -0.7423  0.6397  0.0037
19007THY    HM165649   6.396   3.511   2.037 -0.5950  0.7259  0.6098
19007THY    HM265650   6.496   3.458   2.163 -0.7728  1.6236  0.3643
19007THY    HM365651   6.362   3.589   2.192 -2.5427 -2.2871  0.9688
19007THY    CA665652   6.239   3.312   2.081  0.1306  0.0700  0.8114
19007THY    HA665653   6.258   3.333   1.976 -2.3915 -0.6729 -0.2221
19008THY      O65654   2.750   1.602   7.060  0.5612  0.0747 -0.1053
19008THY     HO65655   2.664   1.573   7.026  0.8553  0.4816 -1.4969
19008THY    CA165656   2.780   1.527   7.171  0.5450  0.2213  0.4156
19008THY    CA265657   2.893   1.559   7.246 -0.1826  0.4176 -0.0009
19008THY    CP165658   2.985   1.665   7.198  0.7270  0.0179 -0.5042
19008THY    HP165659   2.971   1.692   7.092  2.7059 -0.0568  0.4259
19008THY    CP265660   3.137   1.626   7.211  0.5355 -0.6931  0.3167
19008THY    HP265661   3.161   1.549   7.137  0.5253  0.3456 -0.7264
19008THY    HP365662   3.181   1.594   7.306  2.2313 -1.6353 -0.2832
19008THY    HP465663   3.201   1.713   7.190  0.6307 -0.1311  0.3858
19008THY    CP365664   2.955   1.784   7.297 -0.5714 -0.6133 -0.0974
19008THY    HP565665   2.859   1.832   7.272  0.8440 -1.4852  2.4318
19008THY    HP665666   3.019   1.866   7.264  0.3951  1.5539  0.0727
19008THY    HP765667   2.962   1.771   7.406 -1.9276 -0.5588 -0.5439
19008THY    CA365668   2.915   1.497   7.368  0.5844 -0.9349 -0.0712
19008THY    HA365669   3.010   1.512   7.418  0.9227 -1.0069 -1.7681
19008THY    CA465670   2.823   1.396   7.409 -0.2328  0.0012 -0.1215
19008THY    HA465671   2.845   1.341   7.500 -0.7805 -0.8035 -1.7228
19008THY    CA565672   2.718   1.350   7.324  1.1968 -0.4151 -0.0168
19008THY    CM165673   2.635   1.223   7.356 -0.0415 -0.3175  0.9639
19008THY    HM165674   2.579   1.235   7.450 -0.1387 -0.1929 -0.2689
19008THY    HM265675   2.693   1.130   7.362 -4.0610 -1.9505 -1.9751
19008THY    HM365676   2.553   1.213   7.283 -0.7157  0.1620  2.6473
19008THY    CA665677   2.697   1.421   7.203  0.0092 -0.9056  0.1572
19008THY    HA665678   2.614   1.392   7.139 -1.3921  0.4049  1.1164
19009THY      O65679   6.289   2.403   4.873  0.3934  0.2891  0.5697
19009THY     HO65680   6.213   2.353   4.909  0.0934 -2.3405 -1.0529
19009THY    CA165681   6.257   2.466   4.751  0.2884 -0.1192  0.1865
19009THY    CA265682   6.346   2.516   4.651 -0.6300 -0.3839 -0.7397
19009THY    CP165683   6.494   2.514   4.688  1.1088 -0.3729 -0.1136
19009THY    HP165684   6.507   2.479   4.791 -0.0173  1.1273  3.4336
19009THY    CP265685   6.568   2.648   4.657  0.1666 -0.4123 -0.0420
19009THY    HP265686   6.669   2.637   4.697 -0.1736  1.0999  1.8031
19009THY    HP365687   6.532   2.741   4.703 -0.0086 -2.2250  0.8460
19009THY    HP465688   6.597   2.672   4.554  0.2579 -0.5942 -0.9038
19009THY    CP365689   6.571   2.410   4.605 -0.2164  0.2954  0.6736
19009THY    HP565690   6.679   2.410   4.619 -0.0118 -0.3061 -2.7894
19009THY    HP665691   6.549   2.437   4.501  0.9522  0.4606  2.3757
19009THY    HP765692   6.535   2.309   4.629  0.4638  0.7988  0.5491
19009THY    CA365693   6.300   2.577   4.535 -0.1433  0.1517 -0.6061
19009THY    HA365694   6.363   2.612   4.453 -0.4071 -0.9821 -2.6557
19009THY    CA465695   6.164   2.575   4.513  0.3032 -0.4526 -0.9891
19009THY    HA465696   6.121   2.615   4.422 -2.6989  1.1042 -0.3264
19009THY    CA565697   6.071   2.528   4.612  0.6233  0.2035  0.3281
19009THY    CM165698   5.927   2.569   4.590  0.2570  0.5129  0.0814
19009THY    HM165699   5.924   2.679   4.582  1.0517  2.5298  0.2913
19009THY    HM265700   5.861   2.545   4.674 -3.3334 -2.5138 -1.6473
19009THY    HM365701   5.878   2.512   4.511 -2.3829  1.4241  0.9224
19009THY    CA665702   6.119   2.481   4.737 -0.0575 -0.0651  1.4444
19009THY    HA665703   6.048   2.446   4.812 -0.2214 -0.8824 -0.0524
19010THY      O65704   1.271   3.100   5.121  0.8016 -0.1237  0.3991
19010THY     HO65705   1.224   3.112   5.205 -1.6212 -1.0534 -1.5858
19010THY    CA165706   1.162   3.096   5.039  0.0975 -0.1232 -0.5961
19010THY    CA265707   1.166   3.162   4.907  0.4979  0.3718  0.6541
19010THY    CP165708   1.304   3.207   4.854 -0.1621 -0.5583  0.1740
19010THY    HP165709   1.353   3.273   4.926  0.8308 -2.7755  2.0406
19010THY    CP265710   1.309   3.299   4.732  0.3194 -0.1869 -0.8227
19010THY    HP265711   1.417   3.314   4.714  0.1439 -1.6180 -1.0643
19010THY    HP365712   1.262   3.394   4.757 -0.2061 -2.5332 -0.3940
19010THY    HP465713   1.259   3.246   4.650 -1.2792  0.7063 -0.7376
19010THY    CP365714   1.393   3.088   4.823  0.1753  0.1192 -0.5036
19010THY    HP565715   1.472   3.120   4.754 -1.0911 -0.2409  2.1457
19010THY    HP665716   1.338   3.011   4.768  2.3973  0.1287 -2.2205
19010THY    HP765717   1.440   3.039   4.909  0.7984  0.7574  1.1582
19010THY    CA365718   1.046   3.178   4.840  0.4704  0.1397 -0.7923
19010THY    HA365719   1.042   3.236   4.748 -0.8255  0.7914  0.1705
19010THY    CA465720   0.924   3.131   4.893 -0.8153  0.2293 -0.1661
19010THY    HA465721   0.829   3.143   4.842 -0.3369 -0.8040 -0.6224
19010THY    CA565722   0.922   3.069   5.017 -0.4258  0.0442  0.3841
19010THY    CM165723   0.787   3.028   5.071 -0.2704  0.3053  0.2566
19010THY    HM165724   0.699   3.049   5.009 -1.3935  1.2181 -1.4381
19010THY    HM265725   0.782   3.065   5.175 -0.5498 -0.6259  3.1314
19010THY    HM365726   0.785   2.919   5.076  1.8360 -2.1604  0.0238
19010THY    CA665727   1.039   3.044   5.090  0.0487  0.9301  0.1433
19010THY    HA665728   1.020   2.999   5.187 -1.7733 -0.1914 -1.6228
19011THY      O65729   4.284   5.441   2.260 -0.1561 -0.0537  0.0295
19011THY     HO65730   4.359   5.476   2.209  0.1865 -0.5338 -1.3601
19011THY    CA165731   4.330   5.339   2.336  0.2486 -0.3277 -0.3165
19011THY    CA265732   4.263   5.287   2.451  1.2400 -0.6593  0.1178
19011THY    CP165733   4.124   5.347   2.496 -0.5120 -0.6664 -0.2663
19011THY    HP165734   4.101   5.414   2.412 -1.7066 -2.3929 -2.7000
19011THY    CP265735   4.122   5.426   2.619  0.0796 -0.5848 -0.6528
19011THY    HP265736   4.035   5.492   2.615  0.9432  0.2243  0.5721
19011THY    HP365737   4.216   5.481   2.627 -0.4038  1.1130 -0.0461
19011THY    HP465738   4.130   5.355   2.702  1.0667  0.6681  0.8578
19011THY    CP365739   4.013   5.237   2.496 -0.4768  0.0599 -0.5405
19011THY    HP565740   3.915   5.285   2.489  0.4489 -0.0915  1.4536
19011THY    HP665741   4.018   5.162   2.576 -0.0539  0.3633 -0.1996
19011THY    HP765742   4.027   5.191   2.398 -1.2073  0.4859 -1.6984
19011THY    CA365743   4.315   5.189   2.534 -0.7535  0.4664  0.4242
19011THY    HA365744   4.268   5.146   2.622 -0.0234  1.2475  1.1610
19011THY    CA465745   4.443   5.147   2.497  0.4790  1.1017 -0.4065
19011THY    HA465746   4.491   5.064   2.548  0.0016 -0.2831 -1.5739
19011THY    CA565747   4.521   5.203   2.392  0.8589  0.0499  0.2195
19011THY    CM165748   4.659   5.153   2.362  0.1417  0.0798 -0.1683
19011THY    HM165749   4.700   5.226   2.291 -1.5119  1.0618  1.8406
19011THY    HM265750   4.664   5.048   2.333 -2.5850 -0.7652 -0.1634
19011THY    HM365751   4.718   5.169   2.453  1.1514 -0.5110 -0.4370
19011THY    CA665752   4.454   5.286   2.301 -0.0576 -0.1280  1.1818
19011THY    HA665753   4.507   5.334   2.219  3.3317  1.9218  1.2653
19012THY      O65754   1.356   0.922   7.631 -0.2552  0.5184 -0.1722
19012THY     HO65755   1.432   0.955   7.579 -0.0793  0.7420 -0.2247
19012THY    CA165756   1.246   0.973   7.576 -0.3543  0.6069 -0.2084
19012THY    CA265757   1.141   1.009   7.660  0.0888 -0.4289 -0.2794
19012THY    CP165758   1.155   0.996   7.812  0.0563 -0.0618  0.3762
19012THY    HP165759   1.227   0.917   7.837 -0.8078 -0.5271 -0.5906
19012THY    CP265760   1.014   0.957   7.870  0.4871 -0.1864  0.3308
19012THY    HP265761   0.969   1.050   7.905 -0.1096 -1.1838  0.4376
19012THY    HP365762   1.043   0.895   7.956 -2.2286  0.4649 -0.1868
19012THY    HP465763   0.952   0.895   7.804 -0.9339  1.1765  0.2577
19012THY    CP365764   1.208   1.124   7.876  0.0504 -0.8003 -0.2281
19012THY    HP565765   1.124   1.190   7.902 -0.2299 -0.0391 -0.8627
19012THY    HP665766   1.294   1.169   7.825  0.2635 -0.4951 -0.2797
19012THY    HP765767   1.249   1.102   7.976 -0.7107 -0.3965  0.1324
19012THY    CA365768   1.028   1.062   7.603 -0.1871 -0.3389 -0.0210
19012THY    HA365769   0.938   1.084   7.660 -1.8129 -2.5431 -0.5774
19012THY    CA465770   1.020   1.083   7.462 -0.0896  0.1635 -0.5614
19012THY    HA465771   0.931   1.121   7.412  0.3777  1.5595  2.7076
19012THY    CA565772   1.129   1.060   7.381  0.3234  0.0952  0.3237
19012THY    CM165773   1.134   1.081   7.233  0.1327 -0.4894 -0.9366
19012THY    HM165774   1.219   1.032   7.183 -0.5498 -2.1733 -0.4913
19012THY    HM265775   1.129   1.188   7.213 -1.1026 -0.1489 -0.9100
19012THY    HM365776   1.047   1.042   7.177  0.3884 -0.2966 -1.8214
19012THY    CA665777   1.244   0.993   7.439  0.2180 -0.9533  0.2887
19012THY    HA665778   1.328   0.962   7.377 -0.2347 -1.4761  0.0840
19013THY      O65779   2.834   5.182   3.740 -0.2334  0.7568  0.6684
19013THY     HO65780   2.839   5.208   3.834  1.0447  0.6611  0.8429
19013THY    CA165781   2.749   5.260   3.663 -0.5215 -0.1826 -0.4310
19013THY    CA265782   2.741   5.247   3.519 -0.0074 -0.5193 -0.4084
19013THY    CP165783   2.844   5.149   3.449  0.1846 -0.3866 -0.3665
19013THY    HP165784   2.934   5.145   3.511  0.1418 -0.1708  1.3385
19013THY    CP265785   2.895   5.194   3.310  0.3454  0.1771  0.2144
19013THY    HP265786   2.991   5.147   3.286  0.6421  1.6215  0.0456
19013THY    HP365787   2.912   5.302   3.308 -0.2069 -0.6095  0.2959
19013THY    HP465788   2.822   5.161   3.235  0.3289  0.4453 -0.3712
19013THY    CP365789   2.793   5.002   3.442 -0.3383 -0.3175 -0.0769
19013THY    HP565790   2.873   4.929   3.426  1.1686  2.0350  0.9037
19013THY    HP665791   2.709   4.986   3.375  0.1483 -0.4545 -2.2680
19013THY    HP765792   2.755   4.971   3.540  0.3240 -0.4106 -1.2634
19013THY    CA365793   2.654   5.326   3.453  0.0577  0.2401 -0.4306
19013THY    HA365794   2.648   5.326   3.344  3.2615 -0.0679  1.5141
19013THY    CA465795   2.569   5.414   3.524  0.1892  0.2745 -0.4239
19013THY    HA465796   2.498   5.482   3.478 -0.0831  2.8539  1.1624
19013THY    CA565797   2.575   5.430   3.660  0.4242  0.3678  0.3995
19013THY    CM165798   2.490   5.535   3.729  0.2984 -0.1337  0.4797
19013THY    HM165799   2.460   5.505   3.830 -0.1849  0.2815  2.2543
19013THY    HM265800   2.399   5.550   3.670 -1.0708  1.5790 -0.7618
19013THY    HM365801   2.547   5.628   3.743 -0.3190  0.4421  0.7707
19013THY    CA665802   2.666   5.349   3.726  0.5647 -0.9370  0.0432
19013THY    HA665803   2.657   5.349   3.834  1.9957 -0.7355 -2.6160
19014THY      O65804   2.944   5.856   6.687 -0.0332 -0.5887  0.8224
19014THY     HO65805   3.002   5.796   6.638 -0.3296  1.0943 -0.9374
19014THY    CA165806   2.816   5.813   6.662 -0.5798 -0.9354 -0.2194
19014THY    CA265807   2.712   5.826   6.757  0.0443 -0.5011 -0.3043
19014THY    CP165808   2.720   5.926   6.873 -0.0001  0.3455 -0.3854
19014THY    HP165809   2.814   5.982   6.860  0.2528  0.9820 -0.6517
19014THY    CP265810   2.709   5.859   7.008  0.4425 -0.2204 -0.3787
19014THY    HP265811   2.615   5.803   7.006 -1.1227 -2.3263  2.0846
19014THY    HP365812   2.725   5.941   7.078 -1.0740  0.7469 -0.8629
19014THY    HP465813   2.788   5.784   7.014 -0.8962  1.6604 -1.7198
19014THY    CP365814   2.609   6.037   6.861  0.2961 -0.0760  0.6667
19014THY    HP565815   2.516   5.982   6.879  1.2798 -1.6104 -1.6431
19014THY    HP665816   2.608   6.073   6.758  1.5306  0.6417  2.9470
19014THY    HP765817   2.632   6.110   6.939  0.6253  0.1362  0.3450
19014THY    CA365818   2.591   5.753   6.742  0.0878  1.7461 -0.5757
19014THY    HA365819   2.503   5.767   6.805 -1.5953 -0.7466  0.9156
19014THY    CA465820   2.582   5.667   6.629  0.1701 -0.0119  0.2226
19014THY    HA465821   2.491   5.611   6.608 -2.6733  3.1111  3.1792
19014THY    CA565822   2.677   5.663   6.531 -0.2215  0.0631  0.1128
19014THY    CM165823   2.659   5.576   6.414 -0.7125  0.0354  0.7036
19014THY    HM165824   2.583   5.613   6.343 -0.2126 -1.6401 -1.3162
19014THY    HM265825   2.635   5.477   6.455 -1.1694  2.9596  1.9276
19014THY    HM365826   2.753   5.561   6.359 -0.8308  0.6330 -3.0185
19014THY    CA665827   2.796   5.736   6.548 -0.4663  0.1426 -0.4943
19014THY    HA665828   2.884   5.721   6.486  1.4567  2.6671 -0.2697
19015THY      O65829   8.573   3.955   7.534  0.5527  0.1143 -0.6833
19015THY     HO65830   8.543   4.030   7.588 -1.0928 -0.9951 -0.5034
19015THY    CA165831   8.489   3.860   7.566 -0.2231  0.2734  0.4267
19015THY    CA265832   8.493   3.739   7.490 -0.4001  0.3156  0.1364
19015THY    CP165833   8.596   3.714   7.384 -0.5944 -0.5313 -0.0921
19015THY    HP165834   8.662   3.799   7.364 -0.0402  0.9861 -0.1357
19015THY    CP265835   8.532   3.696   7.243  0.1699  0.9983 -0.6713
19015THY    HP265836   8.456   3.770   7.216 -0.3391  0.8344 -1.2433
19015THY    HP365837   8.469   3.607   7.230  0.3752 -0.7067 -0.5985
19015THY    HP465838   8.607   3.700   7.163  1.7167  2.0634 -4.1657
19015THY    CP365839   8.689   3.593   7.412 -0.3953  0.5744  0.9262
19015THY    HP565840   8.640   3.501   7.379  0.2670 -1.1974  1.1809
19015THY    HP665841   8.715   3.585   7.518 -0.9770  0.9233  3.0225
19015THY    HP765842   8.786   3.608   7.363  0.1953  0.7070 -1.9541
19015THY    CA365843   8.406   3.633   7.520  0.8076 -0.2970  0.5997
19015THY    HA365844   8.402   3.542   7.461 -1.1851  0.7043 -0.0275
19015THY    CA465845   8.316   3.651   7.623  0.6078  0.1200  0.3457
19015THY    HA465846   8.246   3.570   7.642 -0.0874 -1.5931  0.4962
19015THY    CA565847   8.314   3.767   7.698 -0.4206 -0.5747 -0.5296
19015THY    CM165848   8.222   3.786   7.817  0.1525 -0.3051  0.7439
19015THY    HM165849   8.195   3.696   7.873 -0.6178  0.4466  1.4232
19015THY    HM265850   8.133   3.837   7.778  0.1227 -1.8192 -0.3852
19015THY    HM365851   8.270   3.852   7.890  0.4628  0.5857 -0.4264
19015THY    CA665852   8.399   3.877   7.667 -0.4805 -0.5275 -0.0764
19015THY    HA665853   8.403   3.966   7.728  0.8756  0.2395 -0.6392
19016THY      O65854   0.180   9.079   4.810  0.6299 -0.2037 -0.5966
19016THY     HO65855   0.104   9.137   4.823  1.0181  0.0124 -0.1264
19016THY    CA165856   0.280   9.159   4.765 -0.5335 -0.5795 -0.0662
19016THY    CA265857   0.391   9.093   4.709  0.2033  0.4738 -0.5656
19016THY    CP165858   0.412   8.941   4.705  0.4273  0.4438  0.4580
19016THY    HP165859   0.313   8.895   4.695  0.7825 -1.1254 -0.0097
19016THY    CP265860   0.481   8.896   4.836  0.3705  0.2102  0.5408
19016THY    HP265861   0.423   8.925   4.924 -1.5178 -1.2019  1.2270
19016THY    HP365862   0.580   8.941   4.848 -0.6316  2.7957  2.2943
19016THY    HP465863   0.503   8.788   4.841  1.7164 -0.4182  0.7697
19016THY    CP365864   0.486   8.889   4.575  1.1022  0.3242  0.6298
19016THY    HP565865   0.466   8.783   4.555 -0.7683 -1.6957  1.2750
19016THY    HP665866   0.595   8.900   4.573  1.8150 -2.8929 -3.9236
19016THY    HP765867   0.432   8.949   4.500  1.3408  0.8865  1.5697
19016THY    CA365868   0.497   9.178   4.663 -0.2266 -0.1081 -0.5523
19016THY    HA365869   0.585   9.144   4.609 -1.1452 -0.7728 -1.9672
19016THY    CA465870   0.465   9.320   4.658 -1.0560 -0.3698 -0.3836
19016THY    HA465871   0.531   9.383   4.599  0.4757 -0.7235 -2.2370
19016THY    CA565872   0.350   9.377   4.709  0.8385 -0.5070 -0.7829
19016THY    CM165873   0.323   9.527   4.671 -1.0424 -0.5281  0.4965
19016THY    HM165874   0.418   9.578   4.690 -0.9398 -2.1872  0.9643
19016THY    HM265875   0.234   9.560   4.727 -2.8830 -0.4665 -3.8635
19016THY    HM365876   0.292   9.533   4.566  0.9171 -1.0603  2.8303
19016THY    CA665877   0.250   9.296   4.765 -0.6860  0.1775  0.2394
19016THY    HA665878   0.152   9.336   4.788 -0.7434  0.3709 -0.0150
19017THY      O65879   2.811   2.456   4.865 -0.1121  0.2324 -0.6656
19017THY     HO65880   2.743   2.483   4.929 -1.0873 -1.5145  1.4243
19017THY    CA165881   2.866   2.571   4.824  0.3818 -1.0139 -0.5511
19017THY    CA265882   2.876   2.595   4.685 -0.9845 -0.1280 -0.0919
19017THY    CP165883   2.820   2.493   4.586 -0.2743 -0.7510  0.4388
19017THY    HP165884   2.844   2.394   4.627 -0.9498 -1.1524  0.0987
19017THY    CP265885   2.898   2.492   4.449  0.1647 -0.5107  0.6257
19017THY    HP265886   2.833   2.428   4.388 -1.7623  2.4798 -0.4944
19017THY    HP365887   2.996   2.452   4.476 -0.6210  2.0957  0.2637
19017THY    HP465888   2.902   2.594   4.409 -1.7229 -2.0425  0.1730
19017THY    CP365889   2.666   2.517   4.569  0.3180  0.1627 -0.3199
19017THY    HP565890   2.618   2.435   4.513  1.6188 -1.2387 -0.1713
19017THY    HP665891   2.651   2.610   4.513 -0.9445  0.6179 -0.2239
19017THY    HP765892   2.616   2.527   4.666 -1.2004 -0.6119 -0.0051
19017THY    CA365893   2.943   2.718   4.650 -0.2717  0.0109 -0.4063
19017THY    HA365894   2.955   2.749   4.546 -0.3060  0.4623  1.1873
19017THY    CA465895   2.978   2.813   4.753  0.0184  0.7621 -0.0753
19017THY    HA465896   3.024   2.908   4.727  1.1180  3.5355  0.2534
19017THY    CA565897   2.961   2.783   4.886 -0.1831 -0.3777 -0.6303
19017THY    CM165898   2.995   2.889   4.993  0.2083  0.0680 -0.5521
19017THY    HM165899   3.051   2.832   5.068  1.0637 -1.3087 -1.5692
19017THY    HM265900   2.902   2.936   5.027 -0.4743 -1.1604 -0.9724
19017THY    HM365901   3.059   2.969   4.953  0.5688 -0.9645 -1.3381
19017THY    CA665902   2.901   2.670   4.927 -0.0532 -0.1960  0.5195
19017THY    HA665903   2.892   2.646   5.032  1.1160 -0.3850 -0.9055
19018THY      O65904   7.836   2.671   3.093 -0.0996 -0.7224 -0.0753
19018THY     HO65905   7.807   2.609   3.024  1.8617 -1.8265  0.1516
19018THY    CA165906   7.935   2.606   3.170  0.2014 -0.4998 -0.2441
19018THY    CA265907   8.040   2.684   3.231  0.1790  0.0557  0.0837
19018THY    CP165908   8.033   2.842   3.223  0.7270  0.1229 -0.4926
19018THY    HP165909   7.943   2.868   3.166  0.0705  0.5764 -1.6993
19018THY    CP265910   8.157   2.890   3.148  0.2521  0.0187  0.3883
19018THY    HP265911   8.150   2.991   3.106 -1.1934 -0.3877  0.1424
19018THY    HP365912   8.173   2.822   3.063 -0.5330  0.4567 -0.3720
19018THY    HP465913   8.250   2.891   3.206 -0.0563  0.5908 -1.1654
19018THY    CP365914   8.034   2.896   3.365 -0.1302  0.7800 -0.3501
19018THY    HP565915   8.043   3.005   3.355 -1.3266  0.0226 -0.3057
19018THY    HP665916   8.124   2.865   3.421  1.9257 -1.5634  1.0374
19018THY    HP765917   7.938   2.870   3.410 -1.0030 -0.2732  0.9577
19018THY    CA365918   8.144   2.617   3.300  0.1066 -0.1875 -0.1668
19018THY    HA365919   8.224   2.676   3.343 -2.3875  1.3167  2.3537
19018THY    CA465920   8.145   2.479   3.302  0.0774 -0.2141 -0.0279
19018THY    HA465921   8.223   2.428   3.359 -1.7048  0.0620 -2.6505
19018THY    CA565922   8.043   2.406   3.239  0.3532 -0.0466 -0.2106
19018THY    CM165923   8.039   2.250   3.247 -0.0522 -0.1486 -0.3254
19018THY    HM165924   8.036   2.218   3.352 -2.7832  0.8459  2.6092
19018THY    HM265925   8.103   2.188   3.184  0.3827 -0.6787  0.6410
19018THY    HM365926   7.947   2.209   3.204 -0.2964  0.8856 -0.9049
19018THY    CA665927   7.944   2.467   3.170 -0.1056  0.4359  0.0653
19018THY    HA665928   7.871   2.411   3.112 -0.9134 -0.3205  1.7942
19019THY      O65929   2.793   3.147   6.175  0.2453 -0.3422 -0.0439
19019THY     HO65930   2.745   3.151   6.090  0.9273 -0.7979 -1.2699
19019THY    CA165931   2.744   3.031   6.230  0.0078  1.0255 -0.2319
19019THY    CA265932   2.802   2.985   6.353  0.6196  0.3888 -0.5422
19019THY    CP165933   2.921   3.056   6.413  0.3082 -0.4639  0.1106
19019THY    HP165934   2.919   3.163   6.388  0.9311  2.3852  0.8822
19019THY    CP265935   3.053   3.000   6.358  0.2439 -0.1649  0.7601
19019THY    HP265936   3.049   2.948   6.262  1.2185  1.0770 -1.7918
19019THY    HP365937   3.090   2.919   6.422 -0.1824  1.9004  2.0901
19019THY    HP465938   3.133   3.074   6.346  0.6690  1.6563  0.6511
19019THY    CP365939   2.943   3.058   6.568  0.2696 -0.7012  0.3931
19019THY    HP565940   2.970   2.962   6.612  0.2783 -0.1621  0.6409
19019THY    HP665941   2.856   3.085   6.630  1.2630  0.7032  0.4120
19019THY    HP765942   3.022   3.132   6.585  0.4636 -2.5056  0.6578
19019THY    CA365943   2.745   2.875   6.423 -0.4686 -0.2929 -1.2843
19019THY    HA365944   2.790   2.849   6.518 -3.3853  2.0337  1.3042
19019THY    CA465945   2.623   2.822   6.381 -0.7951  1.3462  0.1108
19019THY    HA465946   2.580   2.741   6.440  1.8945 -0.9792 -3.2372
19019THY    CA565947   2.572   2.865   6.254 -0.2943 -1.0764 -0.0668
19019THY    CM165948   2.443   2.790   6.207 -0.4460  0.6368 -0.3263
19019THY    HM165949   2.359   2.854   6.236  0.3405 -0.3810  1.2391
19019THY    HM265950   2.421   2.710   6.278 -0.6243  0.6861 -0.2347
19019THY    HM365951   2.434   2.753   6.104  2.5367  0.3412 -0.4488
19019THY    CA665952   2.629   2.972   6.180 -0.1661  0.0341 -0.5979
19019THY    HA665953   2.575   3.014   6.096 -0.0150 -0.5419 -1.5125
19020THY      O65954   4.364   2.957   5.103  0.1050  0.2680 -0.1201
19020THY     HO65955   4.372   2.867   5.139  0.4924 -0.8495 -0.5507
19020THY    CA165956   4.490   2.991   5.071  0.5692 -0.2441 -0.6201
19020THY    CA265957   4.529   3.054   4.951  0.5917  0.6061 -0.2844
19020THY    CP165958   4.422   3.081   4.840  0.3993 -0.2495 -0.1164
19020THY    HP165959   4.336   3.013   4.848 -1.2745  0.1331  1.9317
19020THY    CP265960   4.482   3.070   4.699  0.3299  0.6068 -0.3703
19020THY    HP265961   4.547   3.157   4.683  1.6277 -0.5946 -1.5149
19020THY    HP365962   4.409   3.076   4.617  1.9326 -0.8641 -0.2953
19020THY    HP465963   4.533   2.974   4.688 -0.2683  0.1140 -0.6357
19020THY    CP365964   4.351   3.216   4.863  0.2231 -0.0917 -0.2714
19020THY    HP565965   4.260   3.214   4.803  0.2755 -0.1760 -0.1285
19020THY    HP665966   4.424   3.294   4.839  0.1075 -1.5057 -0.5839
19020THY    HP765967   4.320   3.205   4.968  1.1567  0.0415 -1.9202
19020THY    CA365968   4.653   3.114   4.943 -0.7722 -0.2401 -0.5943
19020THY    HA365969   4.680   3.177   4.859 -1.5259 -0.8523 -1.0731
19020THY    CA465970   4.742   3.101   5.050  0.1020  0.0381 -0.7887
19020THY    HA465971   4.835   3.157   5.058  0.3946 -2.1373 -0.8859
19020THY    CA565972   4.706   3.023   5.162  0.4546  0.2313 -0.3980
19020THY    CM165973   4.807   2.998   5.273 -0.4257 -0.4483 -0.3878
19020THY    HM165974   4.779   2.928   5.353  0.3104 -0.4331 -0.6765
19020THY    HM265975   4.817   3.086   5.337  0.1511  1.3271 -1.6796
19020THY    HM365976   4.910   2.981   5.239 -0.7136 -1.0926 -0.8810
19020THY    CA665977   4.580   2.980   5.182 -0.1948  0.1829  0.0503
19020THY    HA665978   4.557   2.930   5.276 -0.2167 -0.7022 -1.6606
19021THY      O65979   7.576   3.482   2.459  0.4685  0.0926  0.1097
19021THY     HO65980   7.635   3.442   2.525  0.0057  0.6302  0.2968
19021THY    CA165981   7.473   3.533   2.531 -0.6750  0.5381  0.1230
19021THY    CA265982   7.419   3.660   2.501 -0.2550  0.6187  0.0266
19021THY    CP165983   7.466   3.746   2.386  0.1419 -0.5915 -0.1393
19021THY    HP165984   7.517   3.678   2.316 -1.5709 -0.3298 -1.7737
19021THY    CP265985   7.565   3.851   2.433 -0.9037 -0.6116 -0.1934
19021THY    HP265986   7.601   3.919   2.355 -1.3485 -1.0309 -0.4385
19021THY    HP365987   7.659   3.807   2.468 -0.9308  3.3670  2.3786
19021THY    HP465988   7.525   3.901   2.522  0.1776 -0.7548  0.9869
19021THY    CP365989   7.358   3.820   2.303  0.1353  0.3700 -0.3750
19021THY    HP565990   7.398   3.900   2.240  1.9293  0.3642 -1.2338
19021THY    HP665991   7.285   3.861   2.374 -1.0043 -0.9944  0.0315
19021THY    HP765992   7.299   3.757   2.236 -2.7611  3.0661 -0.7907
19021THY    CA365993   7.316   3.704   2.589  0.4425 -0.0283  0.7487
19021THY    HA365994   7.260   3.797   2.580 -1.2766 -1.7978 -0.3745
19021THY    CA465995   7.283   3.632   2.707  0.5923  0.5794  0.5339
19021THY    HA465996   7.201   3.670   2.768  0.4621  0.9394 -0.3027
19021THY    CA565997   7.343   3.507   2.731 -0.3922  0.3030  0.1815
19021THY    CM165998   7.303   3.427   2.850 -0.1056  0.4568 -0.3814
19021THY    HM165999   7.212   3.465   2.897 -1.1374 -0.3911 -1.6828
19021THY    HM266000   7.379   3.427   2.930 -1.9091  2.2663  0.5691
19021THY    HM366001   7.285   3.321   2.826  1.5419  0.9334 -0.8119
19021THY    CA666002   7.435   3.456   2.642 -0.3582  0.2587  0.0031
19021THY    HA666003   7.482   3.360   2.662  0.9817 -2.6974 -0.0640
19022THY      O66004   4.430   4.071   5.821  0.0455  0.5596 -0.3181
19022THY     HO66005   4.446   4.107   5.732  2.0189  1.0876  0.2348
19022THY    CA166006   4.431   3.934   5.804  0.1091  0.1954  0.2109
19022THY    CA266007   4.413   3.849   5.914  0.2329  0.1768  0.3049
19022THY    CP166008   4.373   3.906   6.050 -0.1309  0.0551  0.2670
19022THY    HP166009   4.381   4.015   6.054  1.7192  0.3193  0.1632
19022THY    CP266010   4.471   3.853   6.149 -0.6042 -0.0438  0.2135
19022THY    HP266011   4.437   3.879   6.250  0.8356  0.5009  0.0629
19022THY    HP366012   4.572   3.893   6.136  0.1874 -0.1866 -1.7180
19022THY    HP466013   4.478   3.744   6.142 -1.9110  0.6759  0.0607
19022THY    CP366014   4.229   3.876   6.093  0.3742  0.4538  0.3083
19022THY    HP566015   4.160   3.924   6.023  0.9604 -0.8393 -0.6615
19022THY    HP666016   4.200   3.895   6.197  3.3745  1.4430  0.0255
19022THY    HP766017   4.217   3.768   6.078  2.8247  4.0750 -0.6599
19022THY    CA366018   4.422   3.706   5.892  0.9050  1.1924 -0.4486
19022THY    HA366019   4.409   3.635   5.973 -1.1431  1.4014  0.0870
19022THY    CA466020   4.428   3.651   5.762 -0.3654  0.2303 -0.7756
19022THY    HA466021   4.436   3.544   5.743  2.5762 -1.5149 -0.3384
19022THY    CA566022   4.453   3.739   5.652 -1.0484 -0.4599  0.7549
19022THY    CM166023   4.484   3.684   5.519  0.3093  0.6647 -0.0009
19022THY    HM166024   4.391   3.662   5.465  0.6158 -0.9058  2.2614
19022THY    HM266025   4.540   3.590   5.516 -0.3727 -1.6817 -0.3784
19022THY    HM366026   4.539   3.763   5.468 -1.1057 -0.6597  0.1560
19022THY    CA666027   4.448   3.881   5.670 -0.1079 -0.4851  0.1440
19022THY    HA666028   4.464   3.947   5.585  1.3439  0.5028  1.1117
19023THY      O66029   0.364   7.923   3.674 -0.3866 -0.1336 -1.1197
19023THY     HO66030   0.272   7.945   3.698 -0.0174 -0.8960  1.6626
19023THY    CA166031   0.447   7.964   3.779 -0.3468  0.4156 -0.3003
19023THY    CA266032   0.577   7.924   3.784 -0.7078 -0.1473 -0.4721
19023THY    CP166033   0.640   7.835   3.676 -1.0607 -0.5124  0.5380
19023THY    HP166034   0.568   7.826   3.594 -0.0147 -1.8252  3.1573
19023THY    CP266035   0.688   7.697   3.725 -0.2925  0.3192 -0.6425
19023THY    HP266036   0.742   7.706   3.820 -3.1022  1.8577  1.7572
19023THY    HP366037   0.758   7.649   3.656  0.4060  1.2278 -0.9620
19023THY    HP466038   0.606   7.626   3.739  0.1341  1.3104 -0.9567
19023THY    CP366039   0.761   7.913   3.618 -0.0283 -0.4870  0.1282
19023THY    HP566040   0.734   7.994   3.550  0.0589 -1.6057 -0.7536
19023THY    HP666041   0.832   7.847   3.566 -0.3419 -0.4863 -0.2152
19023THY    HP766042   0.835   7.937   3.696  0.5213 -0.6091 -1.0982
19023THY    CA366043   0.659   7.953   3.900  0.2991 -0.1491  0.1426
19023THY    HA366044   0.760   7.916   3.911 -0.7112 -2.7880 -3.9993
19023THY    CA466045   0.607   8.041   3.998 -0.4913 -0.0297  0.8320
19023THY    HA466046   0.679   8.061   4.077  3.4505 -2.8052 -1.2448
19023THY    CA566047   0.462   8.067   3.997  0.4366  0.6789  0.2819
19023THY    CM166048   0.397   8.149   4.106  0.5481  0.4262 -0.1565
19023THY    HM166049   0.321   8.221   4.074  1.9566 -1.9207  0.3860
19023THY    HM266050   0.469   8.199   4.172 -0.5028 -0.1612  2.3054
19023THY    HM366051   0.338   8.082   4.170 -0.1366 -0.1223 -0.0861
19023THY    CA666052   0.383   8.035   3.884 -0.6116  0.1411  0.3552
19023THY    HA666053   0.280   8.070   3.882  0.3076  1.4051  3.4424
19024THY      O66054   4.689   3.053   6.204  0.4258  0.2771  0.1431
19024THY     HO66055   4.599   3.032   6.235  0.2268 -0.5036 -0.1969
19024THY    CA166056   4.774   3.069   6.310 -0.6465 -0.1533  0.1241
19024THY    CA266057   4.914   3.092   6.297 -0.1943 -0.1168  0.1088
19024THY    CP166058   4.991   3.082   6.165  0.4789  0.0123 -0.7332
19024THY    HP166059   4.924   3.071   6.079  1.6979 -0.7410 -2.8762
19024THY    CP266060   5.075   2.961   6.169  0.7076  0.8033 -0.6590
19024THY    HP266061   5.014   2.874   6.191  0.0915 -0.0977 -0.4736
19024THY    HP366062   5.154   2.966   6.244  0.8068  0.6818 -0.3367
19024THY    HP466063   5.119   2.955   6.068 -0.8234 -0.3406  3.5912
19024THY    CP366064   5.066   3.215   6.135 -0.0901  0.7900  0.6703
19024THY    HP566065   5.010   3.306   6.159  2.2068 -1.0931  2.7268
19024THY    HP666066   5.101   3.220   6.031 -0.4878  0.6918  1.7216
19024THY    HP766067   5.147   3.219   6.209  1.0272 -0.4328  1.9100
19024THY    CA366068   4.985   3.119   6.418  0.1546  0.0747  0.1259
19024THY    HA366069   5.092   3.129   6.424  0.1482  2.4790 -0.6778
19024THY    CA466070   4.914   3.147   6.538 -0.6724 -0.1999  0.2641
19024THY    HA466071   4.982   3.188   6.612  0.1486  0.1043 -1.5454
19024THY    CA566072   4.780   3.132   6.548 -0.3092 -0.2477 -0.3628
19024THY    CM166073   4.693   3.183   6.665  0.1273 -0.1412  0.0478
19024THY    HM166074   4.645   3.093   6.704  0.6846  3.6585  1.2275
19024THY    HM266075   4.608   3.245   6.634 -1.0550  1.6887 -0.5921
19024THY    HM366076   4.764   3.215   6.742 -0.2798  0.9792 -1.6651
19024THY    CA666077   4.714   3.087   6.430  0.2773 -0.0428 -0.2286
19024THY    HA666078   4.606   3.070   6.431  0.3620  2.5760 -1.1214
19025THY      O66079   2.410   1.519   5.032 -0.2816 -0.5898  0.0655
19025THY     HO66080   2.447   1.479   5.112  3.2238 -2.4629 -0.8517
19025THY    CA166081   2.474   1.639   5.010 -0.4221  0.1587 -0.0968
19025THY    CA266082   2.427   1.729   4.915  0.1064 -0.1288  0.3606
19025THY    CP166083   2.303   1.683   4.830 -0.2672 -0.3439 -0.4049
19025THY    HP166084   2.249   1.597   4.872  0.0664 -0.7890 -0.8410
19025THY    CP266085   2.339   1.634   4.683  0.4889  0.0223  0.6113
19025THY    HP266086   2.419   1.558   4.682  0.3670 -0.5440  0.4869
19025THY    HP366087   2.384   1.719   4.631  0.0200  0.0464  0.8745
19025THY    HP466088   2.253   1.588   4.633  0.6642  1.0907 -0.9753
19025THY    CP366089   2.197   1.790   4.809 -0.5103 -0.3694  0.6513
19025THY    HP566090   2.249   1.875   4.763 -1.1599 -2.2048  0.1007
19025THY    HP666091   2.158   1.827   4.905  0.7425  0.3918  0.0911
19025THY    HP766092   2.122   1.747   4.742 -0.8662  0.7765 -0.5776
19025THY    CA366093   2.489   1.858   4.908  0.3928  0.2502 -0.1820
19025THY    HA366094   2.455   1.939   4.845 -0.3273  1.0151  0.1259
19025THY    CA466095   2.613   1.885   4.972  0.2041  0.3911 -0.2814
19025THY    HA466096   2.677   1.972   4.960  0.9709  0.1557 -0.8690
19025THY    CA566097   2.657   1.788   5.064  0.2357  0.1728 -0.2475
19025THY    CM166098   2.786   1.813   5.137 -0.7993  0.0660 -0.5502
19025THY    HM166099   2.857   1.729   5.131 -0.6358 -1.9892 -0.2953
19025THY    HM266100   2.766   1.837   5.242  0.1933 -0.0919  1.1598
19025THY    HM366101   2.848   1.892   5.095  1.5730  1.8036 -1.3610
19025THY    CA666102   2.587   1.668   5.089  0.2309 -0.8711 -0.7233
19025THY    HA666103   2.628   1.598   5.162  1.5163 -2.0226 -1.2290
19026THY      O66104   2.420   7.178   6.835  0.1213  0.3015 -0.3159
19026THY     HO66105   2.475   7.134   6.902 -0.6766  0.1751 -1.5643
19026THY    CA166106   2.499   7.270   6.778 -0.0521 -0.3155  0.1075
19026THY    CA266107   2.471   7.335   6.656  0.9135  0.0265  0.1641
19026THY    CP166108   2.353   7.291   6.563  0.8021  0.1729 -0.6043
19026THY    HP166109   2.310   7.193   6.587  1.1503 -1.4329 -1.1731
19026THY    CP266110   2.411   7.279   6.422  0.5549  0.4507 -0.1550
19026THY    HP266111   2.328   7.259   6.353  0.5881  0.1930  0.5611
19026THY    HP366112   2.478   7.192   6.420 -0.4359  1.1126 -0.9565
19026THY    HP466113   2.464   7.365   6.379  0.6299 -1.4814 -1.1057
19026THY    CP366114   2.236   7.401   6.574  0.6476  0.3977 -0.4109
19026THY    HP566115   2.174   7.378   6.661 -0.7958 -0.4058  0.3482
19026THY    HP666116   2.178   7.404   6.481  1.3218 -0.0198 -0.0218
19026THY    HP766117   2.283   7.500   6.574 -2.6818  1.9893  1.3345
19026THY    CA366118   2.551   7.452   6.622 -0.1792  0.4301  0.9026
19026THY    HA366119   2.542   7.508   6.530  2.7540 -1.0325 -0.7757
19026THY    CA466120   2.657   7.489   6.697 -0.2227 -0.5936 -0.4985
19026THY    HA466121   2.709   7.583   6.685 -0.2076  2.8722  0.0442
19026THY    CA566122   2.680   7.420   6.820  0.1491  0.9573  0.3409
19026THY    CM166123   2.794   7.448   6.911  0.8310  0.5619 -0.2324
19026THY    HM166124   2.751   7.489   7.003  0.2123 -0.2136  0.9221
19026THY    HM266125   2.871   7.512   6.868  0.7411 -1.2977 -1.2774
19026THY    HM366126   2.842   7.353   6.938  0.6808  0.9530 -0.1992
19026THY    CA666127   2.603   7.311   6.856  0.7950  0.1004  0.5266
19026THY    HA666128   2.624   7.272   6.955 -0.0089  0.2674  0.4994
19027THY      O66129   6.942   7.634   3.193 -1.0004  0.1018 -0.1307
19027THY     HO66130   6.909   7.722   3.217 -2.1220 -0.2129 -0.4406
19027THY    CA166131   6.989   7.573   3.307  0.2716 -0.1940  0.4105
19027THY    CA266132   6.998   7.439   3.311 -0.3759 -0.4442  0.4036
19027THY    CP166133   6.976   7.356   3.184  0.3225 -0.3579  0.0618
19027THY    HP166134   6.994   7.422   3.098  1.4351 -0.8498 -0.8273
19027THY    CP266135   6.844   7.287   3.176 -0.0057  0.1342 -0.4755
19027THY    HP266136   6.834   7.235   3.272  1.5662  0.2326 -0.6475
19027THY    HP366137   6.844   7.226   3.084  0.0551 -0.8333  0.9532
19027THY    HP466138   6.761   7.357   3.166  0.2728  2.4667  0.2830
19027THY    CP366139   7.091   7.251   3.176  0.4847  0.3517 -0.0688
19027THY    HP566140   7.082   7.182   3.261 -2.0727  1.0910  1.0535
19027THY    HP666141   7.188   7.302   3.176  0.3181  1.0854  0.2728
19027THY    HP766142   7.093   7.199   3.080 -1.4489  0.8849 -1.2472
19027THY    CA366143   7.008   7.377   3.442  1.2489 -0.6308  0.3572
19027THY    HA366144   6.997   7.269   3.450 -0.9871  3.3755  0.7138
19027THY    CA466145   7.024   7.454   3.556 -0.5576 -0.0584  1.0506
19027THY    HA466146   7.035   7.393   3.645 -3.0429  0.2622  0.9913
19027THY    CA566147   7.028   7.589   3.553  0.0002  0.0537 -0.2439
19027THY    CM166148   7.046   7.665   3.684  0.8349  0.1556  0.1841
19027THY    HM166149   7.147   7.636   3.715  0.8177 -1.7736 -2.2514
19027THY    HM266150   6.987   7.637   3.772  1.5423  0.2414 -1.1423
19027THY    HM366151   7.052   7.774   3.671 -1.5207 -0.3672  0.3068
19027THY    CA666152   7.000   7.652   3.430 -0.0009  0.4163  0.4266
19027THY    HA666153   6.987   7.760   3.430  0.0648 -1.6684  0.4756
19028THY      O66154   0.853   6.692   3.776  0.5839  0.1282  0.1596
19028THY     HO66155   0.765   6.711   3.812  0.1858  0.1105 -1.5676
19028THY    CA166156   0.852   6.565   3.736 -0.7219  0.6384  0.2512
19028THY    CA266157   0.972   6.487   3.725 -0.1270  0.6364  0.1952
19028THY    CP166158   1.107   6.551   3.765  0.3133 -0.5608 -0.5048
19028THY    HP166159   1.111   6.657   3.736 -1.4607  1.0643  0.0757
19028THY    CP266160   1.228   6.487   3.706  0.1428 -0.3961  0.0243
19028THY    HP266161   1.225   6.475   3.597  1.3733 -0.3516 -0.9346
19028THY    HP366162   1.255   6.393   3.755 -1.4768  0.2775 -0.1264
19028THY    HP466163   1.317   6.549   3.724 -0.3222 -2.0093  1.2435
19028THY    CP366164   1.120   6.553   3.916  0.2474 -0.1594 -0.4372
19028THY    HP566165   1.026   6.593   3.955 -0.3721 -2.0421  0.0839
19028THY    HP666166   1.194   6.621   3.959 -0.7895 -0.6465  1.0642
19028THY    HP766167   1.136   6.451   3.952 -0.1825  0.1868 -0.3853
19028THY    CA366168   0.963   6.353   3.676 -0.3196  0.1249  0.6945
19028THY    HA366169   1.039   6.275   3.679 -1.7962 -1.1466 -0.8933
19028THY    CA466170   0.836   6.301   3.647 -0.2317 -0.7766  0.0403
19028THY    HA466171   0.814   6.195   3.632 -1.7459 -1.5467  0.4370
19028THY    CA566172   0.723   6.383   3.652  0.2300 -0.4493 -0.2792
19028THY    CM166173   0.583   6.330   3.616 -0.4161 -0.2131 -0.5573
19028THY    HM166174   0.594   6.309   3.508  1.5047 -0.8256  2.8965
19028THY    HM266175   0.510   6.410   3.630  1.5358  0.3389  1.2146
19028THY    HM366176   0.549   6.235   3.657  1.7866  1.3138 -0.7496
19028THY    CA666177   0.727   6.513   3.700 -0.1147 -0.5631  0.2044
19028THY    HA666178   0.636   6.568   3.721  0.8126 -0.7134  1.8677
19029THY      O66179   4.618   6.724   7.604 -0.1436  0.2271  0.0226
19029THY     HO66180   4.610   6.803   7.548  1.4200  0.0998  0.1067
19029THY    CA166181   4.584   6.618   7.521 -0.2765 -0.0828 -0.9779
19029THY    CA266182   4.573   6.485   7.565 -0.2799  0.2220 -0.2879
19029THY    CP166183   4.580   6.450   7.710  0.7434  0.3698 -0.5412
19029THY    HP166184   4.638   6.522   7.769 -0.9379  0.1939  1.0173
19029THY    CP266185   4.647   6.314   7.730 -0.0875 -0.1830  0.4144
19029THY    HP266186   4.747   6.308   7.686 -0.4017 -0.9793  0.8380
19029THY    HP366187   4.592   6.227   7.689 -0.8417  1.7213 -0.0517
19029THY    HP466188   4.656   6.297   7.838  1.2526 -0.3764 -0.2445
19029THY    CP366189   4.437   6.434   7.763 -0.3763 -0.0659  0.5263
19029THY    HP566190   4.372   6.371   7.701 -0.6647  2.0973 -1.4588
19029THY    HP666191   4.397   6.534   7.778  0.0313  1.1184  0.5313
19029THY    HP766192   4.438   6.392   7.864  0.9417 -1.0132 -1.9360
19029THY    CA366193   4.531   6.390   7.468 -1.2710  0.1988 -0.3315
19029THY    HA366194   4.511   6.286   7.494  0.6611 -1.9906 -1.3464
19029THY    CA466195   4.521   6.429   7.330  0.1022 -0.3855 -0.2123
19029THY    HA466196   4.490   6.353   7.259  2.3652 -0.6349 -0.9483
19029THY    CA566197   4.557   6.557   7.290 -0.0833 -0.0309 -0.0425
19029THY    CM166198   4.531   6.599   7.156 -0.3283  0.3532 -0.7924
19029THY    HM166199   4.608   6.673   7.128 -1.8790 -0.4026  0.6032
19029THY    HM266200   4.437   6.654   7.142  0.3661 -0.5750  0.1896
19029THY    HM366201   4.537   6.516   7.085 -0.4898 -0.0536 -0.4642
19029THY    CA666202   4.580   6.655   7.388  0.6685 -0.8786  0.4655
19029THY    HA666203   4.581   6.759   7.355 -0.7346 -0.2452  0.6943
19030THY      O66204   3.744   6.779   3.015  0.9032  0.0038  0.8030
19030THY     HO66205   3.837   6.753   3.018  0.2901  0.7052 -1.5638
19030THY    CA166206   3.729   6.823   2.894  0.2963  0.7034 -0.1117
19030THY    CA266207   3.612   6.841   2.821  0.4362 -1.0631 -0.3194
19030THY    CP166208   3.482   6.795   2.897  0.1207 -0.3292  0.1632
19030THY    HP166209   3.493   6.801   3.006 -0.3673 -0.0012 -2.9981
19030THY    CP266210   3.450   6.649   2.887  0.5342 -0.0255 -0.0820
19030THY    HP266211   3.471   6.620   2.783  2.2351  0.2115  0.1520
19030THY    HP366212   3.344   6.644   2.911  0.0314 -1.2472  2.8709
19030THY    HP466213   3.517   6.605   2.962 -0.9572  2.6028  1.8505
19030THY    CP366214   3.358   6.875   2.851  0.2795 -0.3812  0.2945
19030THY    HP566215   3.331   6.850   2.748  1.3350 -0.4524 -0.6556
19030THY    HP666216   3.382   6.982   2.858 -0.6548 -0.3273  0.5031
19030THY    HP766217   3.269   6.865   2.914 -0.7846 -1.7802  0.7628
19030THY    CA366218   3.617   6.892   2.687  1.0435  0.5594  0.4017
19030THY    HA366219   3.528   6.906   2.628  3.0813 -2.5697  1.0605
19030THY    CA466220   3.738   6.930   2.633  0.1690 -0.1588  1.0854
19030THY    HA466221   3.753   6.966   2.532 -0.5161 -0.6486  0.0344
19030THY    CA566222   3.857   6.901   2.703 -0.4531 -0.7574 -0.4610
19030THY    CM166223   3.990   6.940   2.637 -0.1558  0.2996  0.0362
19030THY    HM166224   4.036   6.868   2.569 -0.2128 -0.0225  0.2994
19030THY    HM266225   4.071   6.950   2.711  0.5965 -0.1371 -2.2972
19030THY    HM366226   3.986   7.034   2.580  1.1675  0.9992  0.5468
19030THY    CA666227   3.850   6.850   2.833  0.1345  0.5690 -0.0449
19030THY    HA666228   3.945   6.816   2.873  0.5345 -0.7798 -0.5510
19031THY      O66229   1.503   5.797   3.812 -0.4933  0.3780  1.1591
19031THY     HO66230   1.589   5.817   3.852  0.3642  0.6223 -2.3808
19031THY    CA166231   1.479   5.913   3.751 -0.1288  0.3380  0.3129
19031THY    CA266232   1.344   5.967   3.734 -0.0869 -0.1575 -0.9097
19031THY    CP166233   1.215   5.899   3.783  0.2471 -0.3140  0.2462
19031THY    HP166234   1.246   5.794   3.796  1.8548 -0.6628  0.6530
19031THY    CP266235   1.096   5.900   3.689 -0.3169  1.1917  0.2372
19031THY    HP266236   1.023   5.979   3.709 -0.1405 -1.2028  1.0809
19031THY    HP366237   1.046   5.802   3.687  1.7535 -1.9102 -0.8944
19031THY    HP466238   1.128   5.905   3.585 -0.0849  1.1954 -0.9071
19031THY    CP366239   1.179   5.952   3.924  0.0005 -0.0002  0.0399
19031THY    HP566240   1.265   5.938   3.990  0.0224 -0.0355  0.0096
19031THY    HP666241   1.086   5.904   3.957 -0.1235  2.6579  1.8731
19031THY    HP766242   1.157   6.060   3.917  0.7115 -1.9387  0.0959
19031THY    CA366243   1.326   6.094   3.676  0.1132  0.9439 -0.3122
19031THY    HA366244   1.224   6.123   3.653 -0.6031  2.1991 -1.7480
19031THY    CA466245   1.439   6.171   3.639  0.4996  0.7220  0.0620
19031THY    HA466246   1.423   6.262   3.582 -0.6081  0.1868 -0.4429
19031THY    CA566247   1.569   6.125   3.668  0.0195 -0.2081  0.6096
19031THY    CM166248   1.680   6.201   3.617 -0.2888 -0.4243  0.0972
19031THY    HM166249   1.763   6.179   3.684 -1.5502  1.9407  2.0450
19031THY    HM266250   1.668   6.309   3.632  0.5247  1.7983 -0.0879
19031THY    HM366251   1.698   6.185   3.510 -2.9785 -0.6584 -2.2073
19031THY    CA666252   1.590   5.998   3.719  1.0523 -0.4824  0.8858
19031THY    HA666253   1.691   5.960   3.732  1.5129 -2.5014  1.2712
19032THY      O66254   2.334   8.813   4.378 -0.0626  0.3174 -0.5548
19032THY     HO66255   2.259   8.808   4.440 -0.4172 -0.0019  0.4987
19032THY    CA166256   2.431   8.870   4.452 -0.4249 -0.6912 -0.5183
19032THY    CA266257   2.567   8.882   4.410 -1.0618 -0.5038 -0.1879
19032THY    CP166258   2.614   8.830   4.272 -0.2084  0.6685  0.3617
19032THY    HP166259   2.528   8.831   4.204 -0.9934  1.5905 -0.9782
19032THY    CP266260   2.659   8.683   4.287  0.1639  0.9236  0.6498
19032THY    HP266261   2.719   8.674   4.379  0.4633  0.8827  1.9937
19032THY    HP366262   2.702   8.637   4.197  1.1372  1.6651  0.0586
19032THY    HP466263   2.567   8.630   4.313 -1.8414 -0.7533  3.0904
19032THY    CP366264   2.722   8.918   4.217 -0.1053  0.0629  0.4149
19032THY    HP566265   2.731   8.912   4.108  0.1079  0.0488  0.9749
19032THY    HP666266   2.816   8.899   4.270 -0.1648 -0.3219 -1.0682
19032THY    HP766267   2.709   9.025   4.234 -0.9698 -1.2836  0.5443
19032THY    CA366268   2.653   8.956   4.491  0.0225 -0.4803 -0.3585
19032THY    HA366269   2.750   8.997   4.466 -0.7517  0.0661  1.9376
19032THY    CA466270   2.606   8.998   4.619  0.7191 -0.5185  1.1548
19032THY    HA466271   2.670   9.050   4.689 -1.1885  1.6297  0.7334
19032THY    CA566272   2.472   8.989   4.660  0.1829  0.1871  0.4470
19032THY    CM166273   2.430   9.055   4.789 -0.4494 -0.3129  0.1182
19032THY    HM166274   2.434   8.993   4.879  1.0386  0.7581  1.6578
19032THY    HM266275   2.336   9.110   4.777  0.7123 -0.8971  2.0961
19032THY    HM366276   2.508   9.128   4.812  2.0624  0.0543 -2.5047
19032THY    CA666277   2.385   8.915   4.580  0.1875 -0.2609  0.8079
19032THY    HA666278   2.285   8.900   4.618  0.2387 -0.9156 -1.5919
19033THY      O66279   1.686   7.813   7.223  0.2027  0.5766 -0.5948
19033THY     HO66280   1.702   7.906   7.246  4.5528 -0.4070 -0.8624
19033THY    CA166281   1.558   7.790   7.187 -0.0464  0.6055  0.5366
19033THY    CA266282   1.513   7.661   7.142  0.4279  0.1149 -0.2008
19033THY    CP166283   1.604   7.539   7.150 -0.0733  0.3003  0.0163
19033THY    HP166284   1.690   7.551   7.216  0.7025 -0.3000 -1.9051
19033THY    CP266285   1.654   7.498   7.008 -0.5303  0.0420  0.1927
19033THY    HP266286   1.577   7.449   6.948  0.2397 -0.6131 -0.2374
19033THY    HP366287   1.735   7.425   7.006 -1.9979  1.3597 -1.5685
19033THY    HP466288   1.695   7.580   6.948 -0.1628  0.2042  0.1271
19033THY    CP366289   1.553   7.414   7.218 -0.3548  0.2520  0.5036
19033THY    HP566290   1.627   7.334   7.218  0.3109  2.0469  1.0803
19033THY    HP666291   1.466   7.382   7.160  0.2510 -0.9818  1.0104
19033THY    HP766292   1.516   7.444   7.317  0.6014  0.4605  1.0254
19033THY    CA366293   1.378   7.648   7.090 -0.6871 -0.3158  0.1073
19033THY    HA366294   1.349   7.547   7.062  2.2029  0.6463 -1.0739
19033THY    CA466295   1.286   7.758   7.102  0.9218  0.0263 -0.0675
19033THY    HA466296   1.183   7.731   7.080  0.7031 -1.4180  1.7790
19033THY    CA566297   1.333   7.876   7.152  0.3404 -0.1079 -0.0859
19033THY    CM166298   1.231   7.991   7.151 -0.1299  0.1963  0.3333
19033THY    HM166299   1.166   7.987   7.239 -0.5551 -0.1819 -1.9930
19033THY    HM266300   1.170   7.990   7.059 -1.7111  1.2210 -0.0654
19033THY    HM366301   1.287   8.085   7.152  0.7060  0.1261 -0.1593
19033THY    CA666302   1.469   7.900   7.183 -0.5648 -0.4034  1.2109
19033THY    HA666303   1.501   8.000   7.211 -0.8348 -0.1053  1.2149
19034THY      O66304   8.131   7.409   6.702 -0.1902 -0.4697  0.3247
19034THY     HO66305   8.179   7.324   6.703  0.4942  1.0541  0.6846
19034THY    CA166306   8.020   7.406   6.770  0.7730 -0.2330 -0.1355
19034THY    CA266307   7.905   7.488   6.742 -0.6100  0.0584  0.5548
19034THY    CP166308   7.909   7.587   6.622 -0.2503  0.1342 -0.2410
19034THY    HP166309   7.997   7.581   6.558 -0.9220 -0.7775 -0.5011
19034THY    CP266310   7.894   7.732   6.662  0.8409  0.0840 -0.2232
19034THY    HP266311   7.971   7.759   6.735  1.5126 -0.4214 -0.7392
19034THY    HP366312   7.792   7.746   6.699  0.6492 -0.4778 -0.1051
19034THY    HP466313   7.896   7.791   6.569  0.0167 -0.7568 -1.4543
19034THY    CP366314   7.802   7.552   6.513 -0.1101 -0.7223 -0.0453
19034THY    HP566315   7.707   7.534   6.564  0.6875  0.3709 -1.3927
19034THY    HP666316   7.829   7.449   6.488  1.4942 -0.2529  0.2367
19034THY    HP766317   7.795   7.609   6.419  0.1292 -0.6156  0.1636
19034THY    CA366318   7.790   7.475   6.821 -0.1666  0.4210 -0.0470
19034THY    HA366319   7.702   7.538   6.811  0.5605  0.2574  0.9709
19034THY    CA466320   7.796   7.389   6.933 -0.2086  0.9793 -0.5290
19034THY    HA466321   7.705   7.374   6.990 -2.2152 -2.1633 -1.4275
19034THY    CA566322   7.913   7.313   6.959  0.1330 -0.5185 -0.6308
19034THY    CM166323   7.916   7.218   7.073 -0.2575  0.0287  0.1749
19034THY    HM166324   7.823   7.226   7.130  0.3172  0.8367  1.2698
19034THY    HM266325   8.000   7.253   7.133  0.4931 -1.4739  1.0474
19034THY    HM366326   7.935   7.116   7.037  0.5713 -1.7705  0.9079
19034THY    CA666327   8.021   7.322   6.876  0.0435  0.0339 -0.0532
19034THY    HA666328   8.109   7.260   6.892 -0.9458  1.9806 -1.0484
19035THY      O66329   4.452   3.315   5.863  0.0582 -0.7418 -0.0431
19035THY     HO66330   4.542   3.298   5.896  0.3535 -1.8814 -0.7562
19035THY    CA166331   4.398   3.192   5.868 -0.6358  0.0654  0.5893
19035THY    CA266332   4.263   3.164   5.848 -0.5982  0.6291 -0.8460
19035THY    CP166333   4.172   3.282   5.817 -0.2425  0.1091 -0.1336
19035THY    HP166334   4.231   3.355   5.760 -2.3856 -1.1886  0.6872
19035THY    CP266335   4.126   3.355   5.940  0.6982 -0.6425  0.2214
19035THY    HP266336   4.212   3.414   5.973  0.1127 -1.2712  1.4649
19035THY    HP366337   4.091   3.275   6.006  0.1002 -2.3718 -1.0178
19035THY    HP466338   4.049   3.431   5.922  0.7135  0.6592  0.5664
19035THY    CP366339   4.044   3.241   5.736 -0.5807  0.3712  0.5476
19035THY    HP566340   3.967   3.198   5.802  1.0184  0.6889 -2.0268
19035THY    HP666341   4.078   3.182   5.650  0.0919  0.3665  0.9271
19035THY    HP766342   3.991   3.329   5.700  0.0944  0.3565  0.9570
19035THY    CA366343   4.205   3.038   5.874 -0.4748  0.1668  0.8092
19035THY    HA366344   4.099   3.016   5.868 -0.3053  0.2915 -0.0739
19035THY    CA466345   4.292   2.938   5.924 -0.4532  0.1074  0.1706
19035THY    HA466346   4.262   2.834   5.938  0.7241 -1.3971 -0.4206
19035THY    CA566347   4.432   2.959   5.930 -0.2942 -0.0802  0.0662
19035THY    CM166348   4.526   2.841   5.950 -0.2791  0.5009 -0.1927
19035THY    HM166349   4.486   2.759   6.010 -2.6591 -2.0593 -1.0704
19035THY    HM266350   4.626   2.870   5.985 -0.0753 -0.3337  0.1730
19035THY    HM366351   4.531   2.791   5.852  0.2340 -0.2670  1.2835
19035THY    CA666352   4.475   3.084   5.910 -1.1923  0.0348 -0.5384
19035THY    HA666353   4.583   3.100   5.914 -1.3057 -0.1264  0.3147
19036THY      O66354   0.858   4.707   3.885 -0.1640 -0.6921 -0.3031
19036THY     HO66355   0.764   4.682   3.882 -0.0579  0.5393 -0.9111
19036THY    CA166356   0.928   4.606   3.841 -0.7676  0.3471  0.4571
19036THY    CA266357   1.065   4.606   3.820  0.4106  0.2285 -0.2585
19036THY    CP166358   1.151   4.714   3.883 -0.3916 -0.0946 -0.6133
19036THY    HP166359   1.093   4.790   3.937 -1.4717 -2.5338  0.4432
19036THY    CP266360   1.224   4.805   3.777  0.3662  0.1392 -0.2203
19036THY    HP266361   1.175   4.903   3.778 -0.0315  0.2775 -0.4156
19036THY    HP366362   1.209   4.764   3.677 -0.4553  0.0129  0.3591
19036THY    HP466363   1.330   4.818   3.803  1.3353 -1.7362 -3.3294
19036THY    CP366364   1.249   4.652   3.982  0.0860 -0.3955  0.1710
19036THY    HP566365   1.328   4.725   4.002  2.6425 -1.0131 -2.2697
19036THY    HP666366   1.292   4.553   3.962  1.5492  0.4062  0.6166
19036THY    HP766367   1.195   4.643   4.077 -0.7149 -1.0152 -2.3048
19036THY    CA366368   1.127   4.500   3.746  0.3207  1.3023  0.3968
19036THY    HA366369   1.235   4.500   3.731  0.1516 -0.0656  0.5071
19036THY    CA466370   1.047   4.394   3.687 -0.2898  0.2050 -0.8887
19036THY    HA466371   1.079   4.316   3.618 -1.8066  0.6467 -1.9686
19036THY    CA566372   0.911   4.395   3.715  0.1464 -0.2951  0.5721
19036THY    CM166373   0.817   4.291   3.653  0.3265  0.4873  0.6530
19036THY    HM166374   0.823   4.202   3.716  2.4355 -0.9884 -0.3263
19036THY    HM266375   0.865   4.252   3.562  0.6336 -0.2678  2.6719
19036THY    HM366376   0.716   4.320   3.622  0.8178  0.4554  2.5044
19036THY    CA666377   0.853   4.498   3.790 -0.5929  0.3003  0.2196
19036THY    HA666378   0.747   4.498   3.815 -0.5009  0.7810 -1.3369
19037THY      O66379   4.154   0.905   3.482 -0.0437 -0.2141 -0.0801
19037THY     HO66380   4.136   0.999   3.465  1.3365  3.0078  0.9114
19037THY    CA166381   4.249   0.861   3.396 -0.2179  0.2642 -0.0186
19037THY    CA266382   4.310   0.732   3.410  0.0300  0.2391  0.9332
19037THY    CP166383   4.274   0.635   3.520  0.0420  0.6109  0.0595
19037THY    HP166384   4.178   0.662   3.566 -0.5867 -0.4072 -0.4025
19037THY    CP266385   4.369   0.635   3.634  0.4991 -0.2174 -0.7573
19037THY    HP266386   4.385   0.734   3.678 -0.6265  1.5701 -1.3186
19037THY    HP366387   4.462   0.583   3.607  1.7811 -0.0110  1.3154
19037THY    HP466388   4.318   0.580   3.714  0.0128  1.9284  2.5298
19037THY    CP366389   4.243   0.490   3.476  0.9921 -0.4095  0.2025
19037THY    HP566390   4.155   0.482   3.410  0.0217  1.0384 -1.9830
19037THY    HP666391   4.220   0.435   3.568 -0.0419  0.1776  1.5596
19037THY    HP766392   4.323   0.443   3.418 -0.1270 -3.3579  1.6131
19037THY    CA366393   4.405   0.692   3.311  0.3216 -1.0463  0.0722
19037THY    HA366394   4.454   0.595   3.311  1.6433  1.9345  0.6304
19037THY    CA466395   4.421   0.771   3.199  0.0973 -0.0941 -0.9456
19037THY    HA466396   4.483   0.749   3.113  1.5489  0.2044  1.6082
19037THY    CA566397   4.372   0.902   3.192  0.8230 -0.3002 -0.2723
19037THY    CM166398   4.413   0.989   3.070  0.1717  0.4356  0.0149
19037THY    HM166399   4.385   0.929   2.982 -2.2765  0.0012  1.6357
19037THY    HM266400   4.518   1.019   3.078 -0.2496 -0.5756  1.9202
19037THY    HM366401   4.341   1.071   3.063 -0.0695 -1.5535 -0.3229
19037THY    CA666402   4.286   0.944   3.294  0.6096 -0.2097 -0.8794
19037THY    HA666403   4.250   1.046   3.290 -0.4067  0.3029 -1.2083
19038THY      O66404   6.379   0.536   4.938  0.0315 -0.3458  0.1330
19038THY     HO66405   6.361   0.585   4.856 -1.5994 -0.1706 -0.1224
19038THY    CA166406   6.350   0.633   5.028  0.2488  0.1417 -0.6528
19038THY    CA266407   6.428   0.671   5.132 -0.7089  0.0749 -0.5085
19038THY    CP166408   6.544   0.582   5.174 -0.4428 -0.0433  0.5845
19038THY    HP166409   6.522   0.475   5.164 -0.9460  0.6382  0.6190
19038THY    CP266410   6.567   0.594   5.327 -1.1198  0.4595 -0.3160
19038THY    HP266411   6.484   0.555   5.386  0.7744  1.1525 -3.7257
19038THY    HP366412   6.600   0.697   5.344 -0.4860  0.8159 -0.5726
19038THY    HP466413   6.656   0.540   5.363 -2.2448  3.2004 -0.4892
19038THY    CP366414   6.668   0.620   5.092  0.2474  0.3442 -0.1415
19038THY    HP566415   6.689   0.718   5.135 -3.6547  2.8372 -0.1823
19038THY    HP666416   6.647   0.619   4.985 -1.1205  0.5896 -1.0614
19038THY    HP766417   6.749   0.549   5.114 -0.3710 -0.6066 -1.1699
19038THY    CA366418   6.393   0.787   5.201  0.4872  0.6894  0.2730
19038THY    HA366419   6.459   0.826   5.278  1.0962  0.8493 -1.0361
19038THY    CA466420   6.278   0.854   5.166  0.2472  0.3890 -0.3404
19038THY    HA466421   6.244   0.933   5.232  0.2464  2.5406 -2.0569
19038THY    CA566422   6.195   0.815   5.058 -0.3540  0.2806  0.7746
19038THY    CM166423   6.080   0.894   5.013  0.3258  0.4720  0.1432
19038THY    HM166424   6.096   0.918   4.907 -1.6428  0.1435  0.1533
19038THY    HM266425   6.075   0.987   5.071  0.2959  1.7749 -0.6514
19038THY    HM366426   5.987   0.840   5.033  0.2309  3.9842  1.3915
19038THY    CA666427   6.241   0.712   4.987 -0.0836  0.0769  0.7256
19038THY    HA666428   6.184   0.679   4.900  2.5692 -0.8194 -1.8896
19039THY      O66429   1.511   1.485   6.814  0.1514  0.7211  0.1564
19039THY     HO66430   1.444   1.425   6.851  1.3555 -0.1364 -1.8018
19039THY    CA166431   1.603   1.508   6.917 -0.1432  0.6829  0.1901
19039THY    CA266432   1.705   1.418   6.947  0.6174 -0.2453 -0.0260
19039THY    CP166433   1.719   1.290   6.862  0.0612 -0.3470  0.8233
19039THY    HP166434   1.627   1.285   6.803  0.9668 -1.9870  2.3346
19039THY    CP266435   1.738   1.158   6.942 -0.4416 -0.1930  0.4701
19039THY    HP266436   1.823   1.179   7.008 -1.0339 -0.0281  2.6439
19039THY    HP366437   1.753   1.080   6.868  0.7328  1.3426 -0.8307
19039THY    HP466438   1.645   1.144   6.999  0.6730  1.7452  0.5238
19039THY    CP366439   1.839   1.309   6.766  0.0065  0.4841  0.4262
19039THY    HP566440   1.861   1.216   6.713  1.2867  0.7780  0.5341
19039THY    HP666441   1.929   1.338   6.822  0.0041  0.7485 -0.0580
19039THY    HP766442   1.801   1.392   6.706  2.9998 -0.0423  1.5332
19039THY    CA366443   1.796   1.456   7.049  0.7761  0.0820  0.4207
19039THY    HA366444   1.884   1.395   7.070 -0.5985 -2.0758 -2.6236
19039THY    CA466445   1.788   1.583   7.105  0.8953 -0.3652 -0.0344
19039THY    HA466446   1.865   1.623   7.170 -0.6332  1.3949  0.1651
19039THY    CA566447   1.678   1.666   7.073  0.0528 -1.1745  0.2667
19039THY    CM166448   1.667   1.797   7.147 -0.2182 -0.0859  0.2372
19039THY    HM166449   1.572   1.805   7.200 -0.4625 -0.6089  0.8603
19039THY    HM266450   1.666   1.880   7.074  0.4862 -1.7321 -1.1402
19039THY    HM366451   1.751   1.801   7.217 -0.9404  0.7929  0.2130
19039THY    CA666452   1.585   1.628   6.984  1.2264 -0.0165  0.6290
19039THY    HA666453   1.510   1.701   6.955  0.2198  0.6405 -0.1110
19040THY      O66454   5.913   7.265   5.821 -0.0321  0.1200  0.7274
19040THY     HO66455   5.834   7.210   5.812  0.4551 -0.9010  0.1567
19040THY    CA166456   5.940   7.298   5.946 -0.3358  0.1391 -0.7439
19040THY    CA266457   6.008   7.419   5.975  0.6597 -0.2528  0.4686
19040THY    CP166458   6.048   7.519   5.868  0.3048  0.8189  0.2599
19040THY    HP166459   5.999   7.499   5.772  2.7130  0.0438 -2.5655
19040THY    CP266460   6.194   7.492   5.825 -0.2451  0.0470 -0.1813
19040THY    HP266461   6.198   7.393   5.778  0.2439  1.1221 -0.6879
19040THY    HP366462   6.252   7.467   5.914 -3.1401  2.2620  0.4834
19040THY    HP466463   6.238   7.568   5.759 -1.1940 -2.0171 -1.3382
19040THY    CP366464   6.024   7.660   5.908  0.1142 -0.0666 -0.0021
19040THY    HP566465   6.028   7.722   5.818  1.2588 -0.2486 -0.3185
19040THY    HP666466   6.106   7.692   5.974  0.4517 -0.0926 -0.7893
19040THY    HP766467   5.929   7.672   5.962  0.6188  0.5855  1.2996
19040THY    CA366468   6.043   7.449   6.109  0.0765 -0.6313  0.2660
19040THY    HA366469   6.101   7.537   6.136  1.2228 -3.1410  0.3631
19040THY    CA466470   6.011   7.362   6.212 -0.7535 -0.2073  0.0754
19040THY    HA466471   6.045   7.387   6.312  2.6300 -1.0874 -0.5322
19040THY    CA566472   5.931   7.247   6.181  0.0364 -0.4251 -0.4373
19040THY    CM166473   5.891   7.152   6.297  0.0245  0.3601 -0.2622
19040THY    HM166474   5.846   7.212   6.377 -1.7415  1.1768 -2.5445
19040THY    HM266475   5.981   7.103   6.338 -0.0867 -0.3154 -1.0440
19040THY    HM366476   5.813   7.079   6.275 -1.7339  2.2764  0.9183
19040THY    CA666477   5.897   7.214   6.053  0.3834  0.4560 -0.2634
19040THY    HA666478   5.835   7.129   6.028 -2.1924 -2.4445  2.2351
19041THY      O66479   3.408   7.744   5.767  0.4241  0.0649  0.5921
19041THY     HO66480   3.361   7.665   5.735  2.5809  1.1094 -1.2502
19041THY    CA166481   3.314   7.806   5.841  0.6691 -0.2890 -0.1712
19041THY    CA266482   3.338   7.933   5.906 -0.6313  0.3419 -0.8744
19041THY    CP166483   3.471   8.001   5.903 -0.2825 -0.1192 -0.4725
19041THY    HP166484   3.555   7.932   5.893  1.0437 -0.4373  1.1334
19041THY    CP266485   3.503   8.082   6.029  0.2868  0.5443 -0.2628
19041THY    HP266486   3.472   8.024   6.116 -1.5651 -1.1948 -2.0422
19041THY    HP366487   3.444   8.174   6.030  0.8134 -1.2239  0.1508
19041THY    HP466488   3.609   8.110   6.035  1.4580  0.5668 -4.1457
19041THY    CP366489   3.494   8.098   5.789  0.1677 -0.2136 -0.3963
19041THY    HP566490   3.592   8.144   5.771 -1.2338 -1.4666  2.3359
19041THY    HP666491   3.416   8.172   5.768 -0.6793 -0.5150 -1.3597
19041THY    HP766492   3.489   8.036   5.698 -2.5055 -1.7084  1.7626
19041THY    CA366493   3.231   7.994   5.976  0.2794  0.6033 -0.6488
19041THY    HA366494   3.243   8.092   6.020 -0.0170  0.3723 -0.5040
19041THY    CA466495   3.111   7.921   5.983 -1.1798 -0.1045  0.2903
19041THY    HA466496   3.030   7.954   6.048 -1.7197  0.1368 -1.3982
19041THY    CA566497   3.088   7.802   5.918  0.5293  0.1634 -0.5864
19041THY    CM166498   2.952   7.740   5.924  0.5161  0.5291 -0.3259
19041THY    HM166499   2.912   7.749   6.026 -0.7140  0.0485 -0.1459
19041THY    HM266500   2.933   7.636   5.895 -2.7692  0.2429  0.2370
19041THY    HM366501   2.885   7.793   5.855 -1.5968  0.0144 -3.4323
19041THY    CA666502   3.187   7.744   5.851 -0.4571  0.0419 -0.4131
19041THY    HA666503   3.168   7.656   5.790  0.2278 -2.8896  1.3363
19042THY      O66504   8.247   0.958   2.189  0.1298 -0.1196  0.1413
19042THY     HO66505   8.229   0.863   2.179  0.7955 -1.4814  0.1294
19042THY    CA166506   8.274   1.010   2.311 -0.0808  0.2871  0.1002
19042THY    CA266507   8.328   1.141   2.329 -0.3507  0.3898 -0.7900
19042THY    CP166508   8.355   1.234   2.206 -0.7735  0.2853  0.5108
19042THY    HP166509   8.293   1.202   2.122 -1.6355  0.6319  1.2355
19042THY    CP266510   8.501   1.221   2.156 -0.6932 -0.6318  0.1232
19042THY    HP266511   8.573   1.238   2.237  0.6499 -1.5691 -0.8564
19042THY    HP366512   8.523   1.291   2.075  2.3148 -0.6139 -0.6584
19042THY    HP466513   8.520   1.122   2.112 -1.0855 -1.7623  0.5414
19042THY    CP366514   8.329   1.386   2.219  0.9052 -0.4574 -0.1274
19042THY    HP566515   8.229   1.401   2.263 -0.4211 -2.8219 -1.4391
19042THY    HP666516   8.314   1.438   2.124 -1.3078  0.5586  1.2772
19042THY    HP766517   8.406   1.434   2.280 -1.2321  1.9723  0.4565
19042THY    CA366518   8.350   1.183   2.458  0.4442  0.4099  0.1461
19042THY    HA366519   8.375   1.289   2.470  2.4369 -2.4987  0.1237
19042THY    CA466520   8.322   1.100   2.572 -0.5142  0.1331 -0.1746
19042THY    HA466521   8.338   1.138   2.672 -2.5709 -0.1281  1.6347
19042THY    CA566522   8.269   0.965   2.548 -0.6269  0.5599 -1.0387
19042THY    CM166523   8.248   0.874   2.674  0.1896 -0.4102  0.3150
19042THY    HM166524   8.153   0.819   2.679 -0.4243 -0.3523  1.3655
19042THY    HM266525   8.250   0.928   2.769  0.7530 -0.8304  1.0482
19042THY    HM366526   8.324   0.795   2.672  0.4079  0.3021  0.5044
19042THY    CA666527   8.239   0.920   2.417 -1.2279 -0.5059  0.0440
19042THY    HA666528   8.205   0.818   2.403  0.1414  0.9126 -0.6522
19043THY      O66529   5.558   0.566   5.114  0.4102  0.2950 -0.1894
19043THY     HO66530   5.555   0.490   5.175 -0.7863 -1.6046 -1.7558
19043THY    CA166531   5.672   0.552   5.041 -0.4616 -0.3327 -0.4343
19043THY    CA266532   5.678   0.582   4.907 -0.1428 -0.0974 -0.6792
19043THY    CP166533   5.555   0.647   4.838 -0.0077 -0.2710 -0.1676
19043THY    HP166534   5.459   0.614   4.879  0.0671 -0.6251 -0.8460
19043THY    CP266535   5.545   0.621   4.689  0.1157 -0.6393 -0.2249
19043THY    HP266536   5.443   0.622   4.649 -0.4193  0.5969 -1.3784
19043THY    HP366537   5.570   0.515   4.673 -1.7660 -1.3278 -0.6001
19043THY    HP466538   5.618   0.682   4.635  1.0161  0.6488 -0.1354
19043THY    CP366539   5.560   0.800   4.870  0.0406  0.1937 -0.5355
19043THY    HP566540   5.547   0.808   4.979 -0.8993  0.3515 -3.0555
19043THY    HP666541   5.476   0.841   4.812  0.3776  0.9989  1.4076
19043THY    HP766542   5.646   0.857   4.835 -0.6925  0.3262  0.6874
19043THY    CA366543   5.804   0.583   4.844  0.4664 -0.2152  0.8767
19043THY    HA366544   5.813   0.609   4.739 -3.4933 -1.2687 -1.2372
19043THY    CA466545   5.922   0.550   4.920  0.0429 -0.0933  0.1275
19043THY    HA466546   6.018   0.548   4.871 -0.0492 -0.2830  0.3881
19043THY    CA566547   5.906   0.497   5.051 -0.2396  0.4027  0.0099
19043THY    CM166548   6.018   0.438   5.129  0.7524 -0.9122  0.0173
19043THY    HM166549   6.062   0.354   5.075  0.3097 -0.3199 -0.6062
19043THY    HM266550   5.984   0.412   5.231 -2.2077 -1.0315  2.7633
19043THY    HM366551   6.096   0.514   5.135  0.9521 -4.4609  0.2266
19043THY    CA666552   5.782   0.506   5.110  0.1056 -0.6276  0.1556
19043THY    HA666553   5.773   0.478   5.214  1.4870  0.3085  2.8177
19044THY      O66554   2.310   7.859   5.733  0.1843  0.2027  0.0031
19044THY     HO66555   2.247   7.786   5.746  0.4129  0.5079 -0.1420
19044THY    CA166556   2.371   7.820   5.620 -0.8689  0.3041 -0.6108
19044THY    CA266557   2.504   7.870   5.580  0.9436 -0.4247  0.5267
19044THY    CP166558   2.583   7.971   5.661 -0.0062 -0.2199 -0.7222
19044THY    HP166559   2.514   8.054   5.681  1.7377 -0.5749  0.8773
19044THY    CP266560   2.700   8.040   5.582  0.5773 -0.3863 -0.5974
19044THY    HP266561   2.731   8.120   5.650  1.2820 -0.6536 -0.6432
19044THY    HP366562   2.659   8.077   5.488 -0.8866 -0.0752 -1.3239
19044THY    HP466563   2.785   7.976   5.559  1.2841 -1.6252  0.7340
19044THY    CP366564   2.640   7.912   5.787 -0.2847 -0.3209 -0.0051
19044THY    HP566565   2.687   7.817   5.759 -0.5605  2.1570 -0.9412
19044THY    HP666566   2.563   7.905   5.865  0.8849  0.8158 -0.9257
19044THY    HP766567   2.708   7.980   5.839 -0.4884 -0.1660  0.0808
19044THY    CA366568   2.562   7.806   5.465 -0.8173 -0.1144  0.8086
19044THY    HA366569   2.661   7.838   5.435 -0.7933  0.1004  0.9397
19044THY    CA466570   2.491   7.711   5.385 -0.1215 -0.7414 -0.1736
19044THY    HA466571   2.529   7.677   5.289 -0.6269 -1.9075  2.2652
19044THY    CA566572   2.365   7.669   5.429  1.0478  0.0473 -0.1618
19044THY    CM166573   2.303   7.557   5.352 -0.4293 -0.4705  0.0997
19044THY    HM166574   2.325   7.468   5.413 -1.1528 -0.8392 -0.3386
19044THY    HM266575   2.341   7.549   5.250 -1.0507 -0.5562 -3.1067
19044THY    HM366576   2.195   7.571   5.366 -0.1760  1.7684  0.2376
19044THY    CA666577   2.308   7.726   5.544 -0.4669  0.3572 -0.1458
19044THY    HA666578   2.207   7.696   5.572 -1.3723  0.1707  2.4901
19045THY      O66579   4.085   7.546   6.163 -0.3749  1.0964  0.0904
19045THY     HO66580   4.161   7.491   6.188 -1.1151  0.4497 -1.2612
19045THY    CA166581   4.086   7.663   6.230  0.3289  0.2218  0.2550
19045THY    CA266582   4.006   7.777   6.190  0.8070 -0.2737  0.4017
19045THY    CP166583   3.939   7.770   6.048 -0.0990  0.1335  0.3131
19045THY    HP166584   3.949   7.674   5.996 -2.1638  2.4573 -1.2766
19045THY    CP266585   4.000   7.874   5.957 -0.1768 -0.0960  0.2350
19045THY    HP266586   4.092   7.840   5.908 -0.4149 -0.8520  0.6805
19045THY    HP366587   4.030   7.969   6.004  2.3924 -1.0509 -0.0126
19045THY    HP466588   3.938   7.888   5.868  0.9895 -1.3078 -1.8236
19045THY    CP366589   3.796   7.794   6.055  0.1619 -0.2695  0.1423
19045THY    HP566590   3.774   7.898   6.081  0.5933  0.7492 -0.0133
19045THY    HP666591   3.745   7.730   6.127 -0.3377 -2.5440 -2.1879
19045THY    HP766592   3.759   7.765   5.956  1.7489 -0.9833  0.4418
19045THY    CA366593   3.997   7.883   6.286 -0.6820 -0.1598  0.5194
19045THY    HA366594   3.944   7.973   6.256 -1.8754 -2.0849 -0.7574
19045THY    CA466595   4.074   7.882   6.406 -0.4757 -0.6198  0.0995
19045THY    HA466596   4.064   7.962   6.479  0.2225  0.9042 -1.1404
19045THY    CA566597   4.149   7.773   6.440 -0.1910  0.5020 -0.1097
19045THY    CM166598   4.202   7.777   6.579 -0.4374  0.3596 -0.1582
19045THY    HM166599   4.278   7.701   6.602 -1.1343 -0.4850 -1.1377
19045THY    HM266600   4.121   7.760   6.650 -1.0648 -0.1923  0.4812
19045THY    HM366601   4.238   7.877   6.606 -2.6614  0.3659  0.6970
19045THY    CA666602   4.162   7.666   6.351 -0.1387 -0.1913  0.9081
19045THY    HA666603   4.218   7.577   6.379  1.1416  3.0029  2.5708
19046THY      O66604   8.765   1.004   7.371  0.6303  0.2605  0.4993
19046THY     HO66605   8.761   0.907   7.379 -0.2400  1.7813  0.6329
19046THY    CA166606   8.790   1.029   7.497  0.4107 -0.1032 -0.3216
19046THY    CA266607   8.853   1.150   7.535  0.1198 -0.0307  0.4836
19046THY    CP166608   8.902   1.244   7.428 -0.2487 -0.1623 -0.5009
19046THY    HP166609   8.894   1.210   7.324  1.9808 -1.6119  2.8378
19046THY    CP266610   9.048   1.297   7.439  0.1377  0.2242  0.1026
19046THY    HP266611   9.115   1.216   7.472  1.3504 -1.4215  0.3610
19046THY    HP366612   9.054   1.377   7.513  1.3036  0.2803 -0.0140
19046THY    HP466613   9.081   1.335   7.341  2.5447  0.2417 -1.6935
19046THY    CP366614   8.806   1.368   7.414 -0.4247  0.6344  0.0284
19046THY    HP566615   8.813   1.443   7.493  1.3274  0.0455  0.5198
19046THY    HP666616   8.705   1.325   7.417  0.3965  3.3894 -1.9633
19046THY    HP766617   8.821   1.412   7.315 -0.3771 -0.2680 -1.8772
19046THY    CA366618   8.880   1.170   7.665 -0.2344 -0.2714  0.4200
19046THY    HA366619   8.911   1.267   7.704 -1.6007  1.9887  0.0250
19046THY    CA466620   8.854   1.066   7.757 -0.1502  1.1935  0.1416
19046THY    HA466621   8.876   1.077   7.863  0.5044  1.0211  0.5776
19046THY    CA566622   8.797   0.941   7.721  0.6564  0.0528 -0.3070
19046THY    CM166623   8.780   0.829   7.815  0.2252  0.3983 -0.4187
19046THY    HM166624   8.675   0.820   7.846 -0.1181 -0.0658  1.6391
19046THY    HM266625   8.836   0.844   7.908 -0.0738  0.4898  0.1528
19046THY    HM366626   8.816   0.733   7.776  1.7795  2.8623 -0.9329
19046THY    CA666627   8.767   0.926   7.587  0.1720 -0.6589  0.3524
19046THY    HA666628   8.712   0.835   7.566  0.0063 -2.3429  0.8144
19047THY      O66629   1.053   2.427   2.640  0.4032  0.5134 -0.1945
19047THY     HO66630   0.999   2.364   2.590 -0.8906  0.3338  1.0001
19047THY    CA166631   0.959   2.511   2.689 -0.5731  0.2934  0.2636
19047THY    CA266632   0.971   2.539   2.829  0.2484  0.1695  0.7109
19047THY    CP166633   1.071   2.462   2.915  0.3328  0.1914 -0.2409
19047THY    HP166634   1.158   2.428   2.857  0.4067  0.5235 -0.6363
19047THY    CP266635   1.014   2.346   2.983 -0.1013 -0.3237 -0.4796
19047THY    HP266636   0.954   2.283   2.916  1.6219 -1.0002 -1.4679
19047THY    HP366637   0.960   2.384   3.071 -0.0787 -0.6669  0.3592
19047THY    HP466638   1.093   2.277   3.016 -0.9720 -2.0072 -2.3973
19047THY    CP366639   1.130   2.562   3.024 -0.6520 -0.0248 -0.0913
19047THY    HP566640   1.197   2.516   3.098  0.3875  0.1961  1.7022
19047THY    HP666641   1.054   2.607   3.089 -2.5086  0.5414 -3.6410
19047THY    HP766642   1.194   2.637   2.978  2.0119  0.6998 -1.7710
19047THY    CA366643   0.875   2.629   2.879  0.1963 -0.3202  0.4242
19047THY    HA366644   0.872   2.652   2.985 -2.2461  0.2055 -1.8943
19047THY    CA466645   0.776   2.689   2.797  0.1492  0.0577  0.5015
19047THY    HA466646   0.690   2.739   2.840 -1.5230 -0.3162 -1.8766
19047THY    CA566647   0.777   2.664   2.661  0.5547  0.6602  0.3193
19047THY    CM166648   0.679   2.726   2.570 -0.3949  1.0776  0.5475
19047THY    HM166649   0.705   2.723   2.464 -1.5363  0.8064 -0.8515
19047THY    HM266650   0.655   2.828   2.602 -0.3292  1.4305  0.4561
19047THY    HM366651   0.584   2.672   2.581 -0.5016 -0.9023  0.2761
19047THY    CA666652   0.870   2.574   2.610 -0.5560 -0.3239 -0.9822
19047THY    HA666653   0.865   2.562   2.502 -0.2348 -0.4839  0.1708
19048THY      O66654   2.511   5.992   5.841 -0.0510 -0.4185  0.4159
19048THY     HO66655   2.465   5.995   5.755 -0.3425 -0.2363  1.5190
19048THY    CA166656   2.441   6.057   5.934  0.0142 -0.3904 -0.1705
19048THY    CA266657   2.473   6.050   6.074 -0.0065  0.0396 -0.5859
19048THY    CP166658   2.587   5.957   6.118 -0.5812  0.2261 -0.4690
19048THY    HP166659   2.659   5.952   6.036 -0.9902 -0.1026 -1.1098
19048THY    CP266660   2.543   5.814   6.147  0.2336 -0.5582  0.4121
19048THY    HP266661   2.451   5.820   6.205  1.0420  0.8991 -0.7338
19048THY    HP366662   2.626   5.768   6.201 -0.5184 -0.4049 -0.8111
19048THY    HP466663   2.517   5.756   6.058 -0.9742 -0.0955  0.2080
19048THY    CP366664   2.656   6.015   6.238 -0.5639  0.5383 -0.2004
19048THY    HP566665   2.716   5.937   6.286  0.1491  1.7335  1.0361
19048THY    HP666666   2.596   6.042   6.326 -1.5321  0.2288 -1.3073
19048THY    HP766667   2.743   6.076   6.207  0.0537 -2.0707 -2.2230
19048THY    CA366668   2.388   6.123   6.164 -0.7114  0.1360  0.2894
19048THY    HA366669   2.404   6.106   6.270 -0.1971 -0.2598 -1.9654
19048THY    CA466670   2.291   6.208   6.113  0.5169 -0.2026  0.2814
19048THY    HA466671   2.239   6.268   6.187  0.2882  0.1735 -0.3779
19048THY    CA566672   2.282   6.227   5.982  0.4334 -0.0370 -0.6793
19048THY    CM166673   2.182   6.337   5.937  0.0192  0.7220 -0.3843
19048THY    HM166674   2.082   6.292   5.929  0.4381 -0.4774 -1.1403
19048THY    HM266675   2.208   6.378   5.839 -1.2591  0.2358 -0.6808
19048THY    HM366676   2.176   6.419   6.009 -2.5074  0.3871 -0.1744
19048THY    CA666677   2.344   6.149   5.890 -0.2212  0.3949 -0.4695
19048THY    HA666678   2.335   6.182   5.787  0.0327  0.6554  0.4376
19049THY      O66679   3.219   6.835   2.435 -0.8109 -0.0077 -0.4889
19049THY     HO66680   3.165   6.910   2.407 -2.7800  0.3943 -1.6959
19049THY    CA166681   3.282   6.796   2.317  0.1580 -0.3027 -0.2223
19049THY    CA266682   3.382   6.697   2.321 -0.5036 -0.4983 -0.5427
19049THY    CP166683   3.404   6.604   2.440 -0.4692 -0.5450 -0.9202
19049THY    HP166684   3.355   6.648   2.528 -0.2893 -1.1022  0.4439
19049THY    CP266685   3.544   6.580   2.483 -0.7075  0.2046 -0.6707
19049THY    HP266686   3.609   6.668   2.493 -2.3000  1.2033  0.4375
19049THY    HP366687   3.594   6.524   2.402 -2.3433 -2.6782  1.7725
19049THY    HP466688   3.541   6.524   2.577  1.0464  0.1328 -0.9534
19049THY    CP366689   3.327   6.477   2.407 -0.1172  0.4174  0.0703
19049THY    HP566690   3.226   6.493   2.368  0.4759 -1.2708 -0.0783
19049THY    HP666691   3.322   6.428   2.505 -2.7713  1.6825  2.5663
19049THY    HP766692   3.397   6.430   2.336  0.1719 -1.0046  2.5165
19049THY    CA366693   3.450   6.677   2.201 -0.4847 -0.3647  0.9790
19049THY    HA366694   3.525   6.601   2.188 -1.5484  0.0366 -0.1730
19049THY    CA466695   3.410   6.750   2.092 -0.3765  0.2690  0.0827
19049THY    HA466696   3.456   6.730   1.996  1.1292  0.6438  1.5540
19049THY    CA566697   3.325   6.860   2.097  0.5817  0.3759  0.7945
19049THY    CM166698   3.300   6.942   1.968  0.2333 -0.1716 -0.4787
19049THY    HM166699   3.386   7.009   1.957 -0.9039 -0.7539  0.9543
19049THY    HM266700   3.207   7.000   1.977  0.0769  0.7178 -0.8564
19049THY    HM366701   3.297   6.882   1.876  1.2952 -0.2139 -0.4850
19049THY    CA666702   3.260   6.880   2.214 -0.2219 -0.8115 -0.2819
19049THY    HA666703   3.180   6.953   2.224  0.0570 -0.4908 -0.0123
19050THY      O66704   2.524   1.360   5.238 -0.3000  0.4948  0.0031
19050THY     HO66705   2.570   1.380   5.322  0.7576  0.2739 -1.3628
19050THY    CA166706   2.488   1.225   5.245  0.2552 -0.3697 -0.3142
19050THY    CA266707   2.521   1.141   5.137  0.6462  0.3710  0.2550
19050THY    CP166708   2.589   1.195   5.017  0.5856  0.8077 -0.0222
19050THY    HP166709   2.631   1.294   5.038  1.8228 -2.5557  0.3077
19050THY    CP266710   2.502   1.211   4.893 -0.5530  0.7333  0.4479
19050THY    HP266711   2.427   1.291   4.903 -0.6900  0.4142  0.3622
19050THY    HP366712   2.447   1.121   4.862  0.1480 -0.3992  0.3916
19050THY    HP466713   2.558   1.231   4.801 -1.2165  0.6604  2.1718
19050THY    CP366714   2.708   1.118   4.975  0.4390  0.0372  0.6280
19050THY    HP566715   2.792   1.180   4.943 -0.1211 -1.0694  0.8480
19050THY    HP666716   2.676   1.041   4.904 -1.6111  1.6875 -0.1511
19050THY    HP766717   2.736   1.067   5.068 -2.8287 -0.2408 -2.0810
19050THY    CA366718   2.475   1.005   5.137  0.2033 -0.3210  0.5654
19050THY    HA366719   2.482   0.938   5.052 -2.0624 -0.2278  0.1402
19050THY    CA466720   2.415   0.955   5.253 -0.4046  0.3208 -0.0239
19050THY    HA466721   2.383   0.852   5.269 -2.4553 -0.3312  0.4640
19050THY    CA566722   2.384   1.044   5.367 -0.3665  0.1751  0.2200
19050THY    CM166723   2.332   0.982   5.494 -0.4559  0.1603 -0.3406
19050THY    HM166724   2.290   0.882   5.485 -0.4291  1.6531 -0.5041
19050THY    HM266725   2.253   1.044   5.538 -1.3393 -3.1274  1.1401
19050THY    HM366726   2.414   0.950   5.560 -0.9440  0.4957 -0.9119
19050THY    CA666727   2.428   1.178   5.359 -0.3377 -0.4148  0.3269
19050THY    HA666728   2.410   1.243   5.444 -0.4617  0.5448 -0.9340
19051THY      O66729   1.906   6.463   3.060  0.0240  0.3338 -0.6411
19051THY     HO66730   1.893   6.445   2.965  3.0100 -0.8379  2.3668
19051THY    CA166731   1.987   6.361   3.103 -0.3432  0.3457 -0.7237
19051THY    CA266732   2.052   6.360   3.227  0.3758  0.4716  0.1797
19051THY    CP166733   2.017   6.464   3.339 -0.3591 -0.4402  0.2959
19051THY    HP166734   1.916   6.507   3.338  0.1624 -1.2139  1.5645
19051THY    CP266735   2.106   6.577   3.324  0.1531  0.4787 -0.7164
19051THY    HP266736   2.066   6.660   3.383  1.1712  1.3970 -0.8492
19051THY    HP366737   2.121   6.607   3.219  0.5311  0.5541 -0.6337
19051THY    HP466738   2.208   6.556   3.359  0.4649  0.9252  1.3478
19051THY    CP366739   2.034   6.420   3.485  0.1348  0.4280  0.0968
19051THY    HP566740   2.140   6.405   3.508  0.3472 -0.6559 -0.1721
19051THY    HP666741   1.975   6.331   3.509  0.3061  2.2543  0.4411
19051THY    HP766742   1.998   6.500   3.550  0.4145  0.7748 -0.0547
19051THY    CA366743   2.150   6.257   3.251  0.5341  0.1182  0.4692
19051THY    HA366744   2.212   6.247   3.340  1.4709 -0.3103  2.1679
19051THY    CA466745   2.163   6.159   3.156 -0.2588  0.5398  0.0991
19051THY    HA466746   2.214   6.064   3.164 -1.0306  0.5048 -0.3225
19051THY    CA566747   2.103   6.162   3.037 -0.2070 -0.0292 -0.1817
19051THY    CM166748   2.138   6.060   2.931  0.3101  0.0129  0.2232
19051THY    HM166749   2.082   5.966   2.939 -2.8128 -3.6347  1.5062
19051THY    HM266750   2.244   6.031   2.938  0.5970  0.0360  1.2584
19051THY    HM366751   2.125   6.089   2.826  0.0000 -0.3764 -1.2468
19051THY    CA666752   2.027   6.268   3.003  0.3170  0.4125 -0.4853
19051THY    HA666753   1.987   6.276   2.902  0.4427  0.4446  0.7803
19052THY      O66754   4.015   1.625   5.521  0.5154 -0.0887 -0.1545
19052THY     HO66755   3.977   1.705   5.480 -1.3435 -0.6261 -1.2548
19052THY    CA166756   4.086   1.561   5.425  0.0279  0.3892 -0.5205
19052THY    CA266757   4.209   1.500   5.452 -0.1237  0.2389 -0.5451
19052THY    CP166758   4.262   1.493   5.596 -1.0840  0.2422 -0.1104
19052THY    HP166759   4.175   1.491   5.663 -0.9644  0.3981 -0.2228
19052THY    CP266760   4.361   1.612   5.629 -0.1120  0.0132 -0.3374
19052THY    HP266761   4.459   1.596   5.583  0.2616  1.1870 -1.6164
19052THY    HP366762   4.382   1.621   5.736  0.7636  0.1132 -2.8447
19052THY    HP466763   4.311   1.702   5.590 -1.5251  2.1043 -0.1504
19052THY    CP366764   4.333   1.370   5.640  0.0206 -0.4285  0.6359
19052THY    HP566765   4.434   1.362   5.599  0.0669 -0.0926 -0.7273
19052THY    HP666766   4.285   1.279   5.601  1.5425  0.1640 -0.4611
19052THY    HP766767   4.332   1.362   5.749  0.9239 -0.3575  1.3917
19052THY    CA366768   4.284   1.448   5.344  0.6043  0.0082  0.2891
19052THY    HA366769   4.385   1.412   5.366  0.2359 -0.2576 -0.9570
19052THY    CA466770   4.233   1.445   5.214 -0.1908 -0.1436 -0.6339
19052THY    HA466771   4.298   1.415   5.132  0.8789  1.3922 -2.8167
19052THY    CA566772   4.113   1.508   5.190  0.4369  0.3650  0.0234
19052THY    CM166773   4.066   1.528   5.056  0.6359  0.7128  0.9034
19052THY    HM166774   4.031   1.436   5.007  0.4360 -0.6476  1.6703
19052THY    HM266775   4.139   1.586   4.999  0.2519 -0.3416  0.3748
19052THY    HM366776   3.978   1.593   5.043 -0.4156  1.3882 -0.3256
19052THY    CA666777   4.039   1.572   5.295 -0.2455  0.0201  0.4006
19052THY    HA666778   3.944   1.622   5.278  0.4077  0.1343  1.6948
19053THY      O66779   1.188   3.230   4.055 -0.6601  0.2227 -0.3404
19053THY     HO66780   1.212   3.321   4.081 -4.2621  4.4185 -0.2419
19053THY    CA166781   1.054   3.238   4.083  0.0707  0.1022  0.0577
19053THY    CA266782   0.998   3.143   4.170 -0.1974  0.1371  0.2746
19053THY    CP166783   1.079   3.026   4.232 -0.8006 -0.0748 -0.0901
19053THY    HP166784   1.181   3.038   4.194 -0.8253  0.2418  1.2381
19053THY    CP266785   1.033   2.889   4.195  0.2514  0.0180  0.6387
19053THY    HP266786   1.040   2.872   4.086 -0.9943  0.2765 -2.0810
19053THY    HP366787   0.926   2.885   4.219  0.2362  0.0369  1.0760
19053THY    HP466788   1.091   2.817   4.253 -0.1766  0.3658  0.5696
19053THY    CP366789   1.069   3.034   4.393 -0.5982  0.3317  0.1272
19053THY    HP566790   1.112   3.131   4.421  1.1075 -1.0097 -0.2150
19053THY    HP666791   1.136   2.967   4.448  1.9347 -0.2626  2.0106
19053THY    HP766792   0.963   3.025   4.420 -0.7821 -0.6309 -0.6624
19053THY    CA366793   0.860   3.151   4.202  0.3001  0.2664  0.6347
19053THY    HA366794   0.815   3.072   4.262 -1.9653 -1.4492  0.5051
19053THY    CA466795   0.781   3.256   4.150 -0.0991 -0.5656 -0.3058
19053THY    HA466796   0.673   3.257   4.163 -0.0925 -0.4265 -0.8962
19053THY    CA566797   0.843   3.357   4.070  0.0277  0.4715  0.1927
19053THY    CM166798   0.757   3.476   4.022 -0.3920 -0.7092  0.1022
19053THY    HM166799   0.822   3.565   4.022 -0.0508  0.5200 -0.1346
19053THY    HM266800   0.687   3.509   4.099 -0.0978  0.0578 -0.9889
19053THY    HM366801   0.714   3.442   3.927 -0.8383 -0.1872 -0.8334
19053THY    CA666802   0.975   3.337   4.031  0.0605  0.0825  0.2461
19053THY    HA666803   1.033   3.399   3.963 -0.5052 -1.0246 -0.4150
19054THY      O66804   0.752   4.559   6.131  0.2572 -0.1777  0.2897
19054THY     HO66805   0.809   4.616   6.077  2.8645  1.0345 -0.9684
19054THY    CA166806   0.636   4.528   6.067  0.3407  0.2996  0.4776
19054THY    CA266807   0.546   4.431   6.126 -0.6837  0.1994 -0.0261
19054THY    CP166808   0.574   4.361   6.262  0.6370  1.0944 -0.4700
19054THY    HP166809   0.679   4.379   6.287  0.6459 -0.1335  1.5134
19054THY    CP266810   0.566   4.211   6.246  0.4299 -0.1866 -0.4658
19054THY    HP266811   0.653   4.173   6.190  0.7245  1.0669 -1.6860
19054THY    HP366812   0.474   4.181   6.194  1.3145 -0.3169 -3.2463
19054THY    HP466813   0.570   4.169   6.347 -0.5681 -0.5617 -1.5028
19054THY    CP366814   0.485   4.415   6.375  0.7710 -0.0812 -0.3574
19054THY    HP566815   0.535   4.373   6.463  0.9519  0.4855  0.9991
19054THY    HP666816   0.379   4.385   6.371  0.5907 -0.1978  0.2953
19054THY    HP766817   0.495   4.524   6.375  0.2742 -1.7395 -0.2900
19054THY    CA366818   0.411   4.420   6.070  0.2847 -0.7508 -0.2712
19054THY    HA366819   0.340   4.375   6.139 -0.6259 -0.4636  1.5191
19054THY    CA466820   0.369   4.499   5.953 -0.3031 -0.3659  0.1841
19054THY    HA466821   0.265   4.489   5.923 -0.5936  0.4244  0.7039
19054THY    CA566822   0.467   4.585   5.896  0.3362 -0.4053  0.0301
19054THY    CM166823   0.425   4.661   5.769  0.1439 -0.4125  0.6996
19054THY    HM166824   0.340   4.727   5.789  0.5355  0.7334  0.8792
19054THY    HM266825   0.401   4.587   5.692 -0.2300  0.9293 -0.6109
19054THY    HM366826   0.507   4.717   5.721  2.2754 -0.1949 -2.0432
19054THY    CA666827   0.597   4.602   5.957  0.3083 -0.4393 -0.8131
19054THY    HA666828   0.662   4.674   5.907  0.2702 -1.2863 -1.3499
19055THY      O66829   1.593   3.161   5.384  0.4833 -0.0094 -0.4826
19055THY     HO66830   1.605   3.201   5.296  0.0196  0.4259  0.6537
19055THY    CA166831   1.710   3.171   5.455  0.0956 -0.0599 -0.3084
19055THY    CA266832   1.723   3.112   5.583  0.0558  0.4319  0.5398
19055THY    CP166833   1.614   3.033   5.654 -0.3794 -0.0668 -0.6781
19055THY    HP166834   1.523   3.035   5.592 -1.5928  1.6602  0.7076
19055THY    CP266835   1.567   3.119   5.773  0.6357  0.5024 -0.4096
19055THY    HP266836   1.458   3.105   5.772  1.0108 -0.2236 -4.5223
19055THY    HP366837   1.598   3.224   5.770  1.0999 -0.4854 -0.5579
19055THY    HP466838   1.596   3.089   5.874 -0.5337  1.7833  2.4349
19055THY    CP366839   1.658   2.890   5.695  0.7579 -0.0733 -0.6863
19055THY    HP566840   1.566   2.841   5.729 -1.4382  0.2365  3.2368
19055THY    HP666841   1.722   2.903   5.782  1.1314 -0.2148 -1.5644
19055THY    HP766842   1.698   2.842   5.605  0.3116 -0.4812 -0.3076
19055THY    CA366843   1.846   3.137   5.650 -0.3044 -0.4443 -1.0119
19055THY    HA366844   1.866   3.101   5.750  0.5671 -0.1554  0.2262
19055THY    CA466845   1.949   3.212   5.592  0.4024  0.7992  0.1348
19055THY    HA466846   2.032   3.240   5.655  1.0682 -0.2909  0.7000
19055THY    CA566847   1.930   3.272   5.466 -0.2171  0.3430 -0.1029
19055THY    CM166848   2.028   3.364   5.408 -0.8115  0.1263  0.1978
19055THY    HM166849   2.108   3.364   5.483 -1.8332  1.2481 -0.0344
19055THY    HM266850   1.992   3.466   5.395 -0.7159 -2.5161 -0.0358
19055THY    HM366851   2.071   3.332   5.312 -0.7654  0.1719  0.1236
19055THY    CA666852   1.809   3.252   5.399  0.2070 -0.1068 -0.6942
19055THY    HA666853   1.796   3.298   5.302 -0.3435 -0.6632 -1.9711
19056THY      O66854   4.303   5.512   4.868 -0.4134 -0.2380  0.1749
19056THY     HO66855   4.396   5.538   4.882 -0.6126  1.5677  0.0552
19056THY    CA166856   4.282   5.461   4.744 -0.4715 -0.1665  0.5051
19056THY    CA266857   4.182   5.507   4.663  0.4685  0.0325 -0.0410
19056THY    CP166858   4.071   5.603   4.725  0.2765 -0.4154  0.2936
19056THY    HP166859   4.117   5.651   4.812  0.7019 -0.1291 -0.6031
19056THY    CP266860   3.939   5.529   4.767 -0.4641 -0.2617 -0.2661
19056THY    HP266861   3.904   5.468   4.683  0.3068  1.4090 -3.1625
19056THY    HP366862   3.863   5.600   4.802  0.6488 -0.2739  0.9599
19056THY    HP466863   3.961   5.468   4.855  2.8736 -0.9728 -0.2590
19056THY    CP366864   4.023   5.712   4.626 -0.0945  0.0111  0.0109
19056THY    HP566865   3.961   5.796   4.658  1.9328  0.7874  1.2825
19056THY    HP666866   3.965   5.668   4.544 -0.1223  0.2579 -0.4120
19056THY    HP766867   4.112   5.758   4.582  0.4382  2.0613  1.0177
19056THY    CA366868   4.181   5.444   4.538 -0.0329  0.5443 -0.4654
19056THY    HA366869   4.093   5.467   4.478  0.4444  0.1815  0.4670
19056THY    CA466870   4.273   5.349   4.494  0.1072  0.2773  0.4798
19056THY    HA466871   4.249   5.291   4.405 -2.6946  0.3896  1.3099
19056THY    CA566872   4.375   5.310   4.580 -0.0897 -0.2948 -0.4960
19056THY    CM166873   4.485   5.213   4.548  0.0206 -0.1263 -0.8202
19056THY    HM166874   4.550   5.247   4.466 -0.5716 -0.4356 -0.4214
19056THY    HM266875   4.445   5.115   4.519  1.9706 -0.1471 -1.6632
19056THY    HM366876   4.555   5.195   4.630  2.1951 -2.0185 -1.4673
19056THY    CA666877   4.380   5.372   4.704  0.5801  0.3545 -1.0109
19056THY    HA666878   4.455   5.343   4.778  2.2699 -0.9015 -0.0474
19057THY      O66879   0.106   7.038   7.326 -0.0933  0.0240 -0.9291
19057THY     HO66880   0.107   6.947   7.361 -2.8477  0.5383 -0.8604
19057THY    CA166881   0.222   7.093   7.362 -0.1642  0.3604 -0.2988
19057THY    CA266882   0.235   7.235   7.366  0.9367 -0.2564 -0.5533
19057THY    CP166883   0.119   7.336   7.320  0.1438  0.3257  0.1254
19057THY    HP166884   0.029   7.279   7.295 -0.6572 -1.4204  2.0139
19057THY    CP266885   0.161   7.428   7.207  0.0407 -0.6729 -0.2734
19057THY    HP266886   0.074   7.476   7.160  1.4098 -1.8318  1.1454
19057THY    HP366887   0.208   7.364   7.132 -0.2155  0.2319 -1.5588
19057THY    HP466888   0.232   7.498   7.253 -1.6800  1.6976  0.0654
19057THY    CP366889   0.071   7.429   7.430 -0.1198  0.0209 -0.1455
19057THY    HP566890   0.017   7.364   7.500 -1.5975 -2.2198 -1.4656
19057THY    HP666891   0.013   7.511   7.386  3.4879 -3.6388  0.7894
19057THY    HP766892   0.151   7.477   7.488  0.3850 -0.2380 -0.6726
19057THY    CA366893   0.353   7.292   7.409  0.0073  0.5320  0.0163
19057THY    HA366894   0.370   7.400   7.402  1.1177 -3.1495 -0.2522
19057THY    CA466895   0.465   7.211   7.447 -0.0764  0.3331 -0.0680
19057THY    HA466896   0.554   7.260   7.485 -0.0679 -0.7134  0.7806
19057THY    CA566897   0.444   7.073   7.444 -0.7611  0.1560  0.0463
19057THY    CM166898   0.551   6.983   7.480  0.2707 -0.6410  0.5984
19057THY    HM166899   0.583   6.924   7.393  1.7990  0.9748 -1.0908
19057THY    HM266900   0.522   6.931   7.572  0.4929 -0.3252  1.0228
19057THY    HM366901   0.636   7.047   7.507  1.7147  0.5783 -1.6864
19057THY    CA666902   0.324   7.016   7.404 -0.1552  0.1622  0.3686
19057THY    HA666903   0.308   6.909   7.411  0.6179 -2.8771 -0.0418
19058THY      O66904   2.681   4.987   5.865  0.3172 -0.4615  0.1705
19058THY     HO66905   2.692   5.081   5.844  0.3711 -0.6750  0.1177
19058THY    CA166906   2.769   4.919   5.788  0.9374  0.8995 -0.2243
19058THY    CA266907   2.801   4.785   5.811  0.1887 -0.6299 -0.4818
19058THY    CP166908   2.744   4.712   5.936  0.1634 -0.1291  0.5332
19058THY    HP166909   2.642   4.745   5.958 -0.0081 -1.0101  0.6373
19058THY    CP266910   2.820   4.745   6.058 -0.6662 -0.6694 -0.3913
19058THY    HP266911   2.779   4.686   6.141 -0.5366  1.8081  2.7636
19058THY    HP366912   2.802   4.848   6.090  0.0867  1.1267 -0.7817
19058THY    HP466913   2.928   4.724   6.056 -0.8362 -3.1264 -1.3879
19058THY    CP366914   2.740   4.558   5.933  0.0523 -0.0415  0.1678
19058THY    HP566915   2.674   4.530   5.850 -1.1963  0.6192  1.0490
19058THY    HP666916   2.698   4.516   6.025 -1.2167 -0.0446  1.3593
19058THY    HP766917   2.835   4.503   5.926 -0.3544  0.4006 -0.6103
19058THY    CA366918   2.907   4.726   5.738  0.0723  0.6919 -0.2617
19058THY    HA366919   2.937   4.623   5.752  0.5750 -0.0777 -0.2282
19058THY    CA466920   2.973   4.802   5.644  0.1566  0.3355  0.1331
19058THY    HA466921   3.049   4.748   5.588 -1.6857 -1.9788 -0.2071
19058THY    CA566922   2.944   4.935   5.622 -0.2178 -0.2520  0.0677
19058THY    CM166923   3.018   5.022   5.516  0.9328  0.3187 -0.0465
19058THY    HM166924   3.100   4.973   5.464  1.9904  0.1437  1.8376
19058THY    HM266925   3.052   5.119   5.555 -0.8536  1.3519  0.2206
19058THY    HM366926   2.944   5.039   5.437 -2.2505  3.3185  1.4434
19058THY    CA666927   2.838   4.995   5.698 -1.1226 -0.7797 -0.4537
19058THY    HA666928   2.814   5.101   5.687 -2.0186  1.2308 -0.4051
19059THY      O66929   6.397   7.275   4.036  0.4658 -0.4606  0.6866
19059THY     HO66930   6.386   7.181   4.015  1.0524 -0.7183  0.6721
19059THY    CA166931   6.279   7.322   4.069  0.4933 -0.1349  0.0951
19059THY    CA266932   6.263   7.435   4.159 -0.3164  0.4956  0.0322
19059THY    CP166933   6.386   7.505   4.217  0.0467 -0.6411 -0.4426
19059THY    HP166934   6.483   7.485   4.169  1.1810 -0.0685  2.9471
19059THY    CP266935   6.403   7.469   4.362  0.3552 -0.1238  0.8219
19059THY    HP266936   6.428   7.364   4.378 -1.5414  0.8906  0.4781
19059THY    HP366937   6.311   7.494   4.418 -0.8494 -2.4372  1.9398
19059THY    HP466938   6.484   7.532   4.399  0.3855  0.0444  0.6844
19059THY    CP366939   6.373   7.658   4.196 -0.1205 -0.4307  0.3604
19059THY    HP566940   6.466   7.714   4.211 -1.2052  0.0439  2.1134
19059THY    HP666941   6.292   7.705   4.253 -1.3318 -1.5036 -0.3628
19059THY    HP766942   6.337   7.674   4.093 -0.6807 -0.2115  0.5544
19059THY    CA366943   6.133   7.474   4.190 -1.0360 -0.1568 -0.3390
19059THY    HA366944   6.108   7.559   4.253 -2.0893  0.0338 -0.7832
19059THY    CA466945   6.027   7.415   4.124  0.3648  0.1407  0.4508
19059THY    HA466946   5.926   7.437   4.158  0.8048  0.2972  2.3677
19059THY    CA566947   6.041   7.310   4.034 -0.1927 -0.5463  0.8228
19059THY    CM166948   5.930   7.257   3.965  0.0322  0.8657  0.1302
19059THY    HM166949   5.950   7.154   3.933 -0.5109  1.3233 -0.1312
19059THY    HM266950   5.902   7.313   3.875 -0.5424  1.6440  1.1308
19059THY    HM366951   5.843   7.245   4.031  0.7239  1.9500  0.9259
19059THY    CA666952   6.168   7.262   4.011 -0.2656  0.2054 -0.2388
19059THY    HA666953   6.187   7.177   3.946  4.4159 -0.5874  1.1615
19060THY      O66954   2.929   1.701   6.411 -0.2500 -0.3242  0.0950
19060THY     HO66955   2.960   1.677   6.322 -1.2236 -0.8684  0.7947
19060THY    CA166956   2.814   1.634   6.421  0.5733  1.1083 -0.3040
19060THY    CA266957   2.720   1.644   6.523  0.2534 -0.3277 -0.0335
19060THY    CP166958   2.756   1.734   6.653 -0.1463  0.4114  0.5001
19060THY    HP166959   2.808   1.826   6.622 -0.7083 -2.6309 -0.0948
19060THY    CP266960   2.848   1.656   6.753 -0.3215  0.7980 -0.3307
19060THY    HP266961   2.843   1.711   6.848  0.0492  1.3782 -1.2850
19060THY    HP366962   2.948   1.645   6.709 -0.3822  0.1704  1.2896
19060THY    HP466963   2.810   1.556   6.776 -0.3731  0.1799 -0.4535
19060THY    CP366964   2.631   1.778   6.731  0.1556 -0.0139 -0.3720
19060THY    HP566965   2.583   1.690   6.777 -0.4548  0.3766  0.1569
19060THY    HP666966   2.565   1.818   6.654  0.3164 -1.2993 -2.4147
19060THY    HP766967   2.653   1.851   6.811 -2.2375  3.2638 -2.9107
19060THY    CA366968   2.604   1.566   6.526 -0.2243  0.6709 -0.1051
19060THY    HA366969   2.525   1.571   6.601 -1.5770 -0.7640  1.0397
19060THY    CA466970   2.579   1.482   6.413  0.3114  0.8761 -0.4415
19060THY    HA466971   2.486   1.427   6.403 -0.6877  1.3817  1.1011
19060THY    CA566972   2.675   1.468   6.314  0.0437 -0.3090 -0.4161
19060THY    CM166973   2.664   1.377   6.196  0.7821 -0.2607  0.2036
19060THY    HM166974   2.759   1.329   6.170 -0.3507 -1.3601 -1.5382
19060THY    HM266975   2.623   1.431   6.110  1.0348 -0.4166  0.1488
19060THY    HM366976   2.592   1.297   6.214 -0.4418  2.2379  1.7275
19060THY    CA666977   2.790   1.547   6.314 -0.3212 -0.6484 -0.3244
19060THY    HA666978   2.855   1.543   6.227  0.9202  0.2881 -1.2948
19061THY      O66979   0.113   6.629   2.343 -0.0417 -0.3163  0.4964
19061THY     HO66980   0.021   6.598   2.342  0.1925 -0.8405 -0.2039
19061THY    CA166981   0.178   6.522   2.393 -0.6088 -0.0947 -0.3944
19061THY    CA266982   0.305   6.534   2.454 -0.0555 -0.5044  0.2433
19061THY    CP166983   0.364   6.673   2.480  0.1639  0.1350 -0.4913
19061THY    HP166984   0.306   6.748   2.424 -1.2744 -0.9513 -2.3336
19061THY    CP266985   0.510   6.681   2.441 -0.7649  0.4390  0.8361
19061THY    HP266986   0.517   6.654   2.335  1.9124  0.0011  2.8790
19061THY    HP366987   0.570   6.600   2.484 -1.6085  0.7838  0.3800
19061THY    HP466988   0.555   6.780   2.434 -2.5813 -2.0154  1.5871
19061THY    CP366989   0.353   6.709   2.625  0.1591  0.2202  0.2851
19061THY    HP566990   0.266   6.773   2.640 -0.9341 -2.2750 -0.4837
19061THY    HP666991   0.444   6.761   2.659 -0.0397 -0.4882  1.1265
19061THY    HP766992   0.346   6.622   2.691  2.8635  0.3073  0.0394
19061THY    CA366993   0.369   6.430   2.519  0.0077 -0.6073 -0.2416
19061THY    HA366994   0.461   6.441   2.577 -0.7498  0.1305  3.4008
19061THY    CA466995   0.307   6.304   2.502  1.1742 -0.7465 -0.3416
19061THY    HA466996   0.358   6.220   2.548  2.2497  0.5481  0.9591
19061THY    CA566997   0.181   6.284   2.433 -0.1294  0.4055 -0.8909
19061THY    CM166998   0.111   6.154   2.438  0.1813 -0.3299  0.0659
19061THY    HM166999   0.094   6.110   2.339 -0.0816  0.3227 -1.3664
19061THY    HM267000   0.013   6.176   2.482 -0.2542 -1.0591 -0.3743
19061THY    HM367001   0.156   6.081   2.506  1.0004 -0.1689  0.7031
19061THY    CA667002   0.119   6.396   2.377 -0.0298  0.5921 -0.4341
19061THY    HA667003   0.022   6.392   2.327  1.1539 -2.0902  1.0879
19062THY      O67004   2.806   8.749   7.096  0.6282  0.6637  0.7532
19062THY     HO67005   2.826   8.834   7.053 -0.0055  1.4159  1.3091
19062THY    CA167006   2.914   8.712   7.164 -0.2952  0.2695  0.0729
19062THY    CA267007   2.919   8.605   7.256 -0.1354 -0.4809 -0.1324
19062THY    CP167008   2.803   8.509   7.279 -1.0352 -0.6237 -0.1197
19062THY    HP167009   2.728   8.528   7.201  0.2824 -1.9122 -0.0190
19062THY    CP267010   2.748   8.527   7.415  0.3804 -0.9835 -0.3043
19062THY    HP267011   2.677   8.450   7.449  1.7301 -1.8231 -1.9927
19062THY    HP367012   2.704   8.627   7.421  0.2026  1.3033 -0.4721
19062THY    HP467013   2.831   8.528   7.486 -0.7729  0.4562  1.7976
19062THY    CP367014   2.836   8.363   7.247  0.2558  0.1113 -0.4835
19062THY    HP567015   2.739   8.314   7.229  0.8263 -1.6465 -1.0542
19062THY    HP667016   2.892   8.317   7.329  0.4948 -0.7441 -1.7846
19062THY    HP767017   2.902   8.358   7.159  0.8200  0.5450 -0.7527
19062THY    CA367018   3.037   8.583   7.331  0.4056 -0.7063 -0.1492
19062THY    HA367019   3.029   8.509   7.410 -0.2024  0.2105  0.8692
19062THY    CA467020   3.147   8.670   7.326  0.1102 -0.4716 -0.2971
19062THY    HA467021   3.232   8.647   7.389  0.4137 -0.5840  0.5090
19062THY    CA567022   3.149   8.769   7.226 -0.8582  0.4236  0.0786
19062THY    CM167023   3.268   8.856   7.219 -0.0757 -0.3512  0.1957
19062THY    HM167024   3.329   8.845   7.128  0.3081 -0.0358 -0.3572
19062THY    HM267025   3.332   8.851   7.307  0.0248 -0.4009  0.5356
19062THY    HM367026   3.237   8.961   7.217 -2.2766  0.5759 -0.3923
19062THY    CA667027   3.029   8.797   7.155  0.3642 -0.4767  0.2138
19062THY    HA667028   3.024   8.884   7.090 -0.7112 -0.7237 -0.0193
19063THY      O67029   2.188   2.801   7.763 -0.0537 -0.2739  0.5443
19063THY     HO67030   2.222   2.724   7.811  1.3356 -1.1563  0.5645
19063THY    CA167031   2.164   2.749   7.640  0.4664 -0.3316  0.5311
19063THY    CA267032   2.132   2.826   7.528 -0.5618  0.1775  0.2745
19063THY    CP167033   2.118   2.975   7.529  0.2941  0.0952 -0.3453
19063THY    HP167034   2.158   3.021   7.620 -1.4211  0.1588  1.1500
19063THY    CP267035   1.967   3.006   7.526 -0.3657 -0.3282 -0.6028
19063THY    HP267036   1.930   2.937   7.602  0.0764  0.7039  0.2477
19063THY    HP367037   1.925   2.989   7.426  0.5775 -0.6829 -0.9142
19063THY    HP467038   1.944   3.108   7.561 -0.1921 -1.1227 -0.2797
19063THY    CP367039   2.185   3.038   7.406 -0.0193  0.0879 -0.1126
19063THY    HP567040   2.124   3.034   7.315  0.1165  0.0361 -2.6396
19063THY    HP667041   2.282   3.001   7.373 -0.6499 -0.9124 -0.9468
19063THY    HP767042   2.211   3.141   7.435  2.1557  2.0633 -1.1534
19063THY    CA367043   2.098   2.764   7.404 -0.0316 -0.3723  0.5053
19063THY    HA367044   2.053   2.821   7.323 -1.3342 -0.5748 -0.7628
19063THY    CA467045   2.117   2.628   7.391  0.1690 -0.1490 -0.2139
19063THY    HA467046   2.089   2.583   7.297  1.5121 -0.0840 -1.2550
19063THY    CA567047   2.157   2.550   7.502  0.5120  0.0729  0.4250
19063THY    CM167048   2.187   2.402   7.486 -0.2081 -0.0017 -0.3729
19063THY    HM167049   2.211   2.342   7.575  0.1749 -0.5295 -1.0163
19063THY    HM267050   2.268   2.384   7.415  1.5234  1.1481  2.2385
19063THY    HM367051   2.098   2.355   7.442 -0.4733 -0.4333  0.5161
19063THY    CA667052   2.181   2.611   7.625  0.8762 -0.2727  0.0047
19063THY    HA667053   2.213   2.547   7.707  0.9840 -0.9753 -0.8604
19064THY      O67054   5.552   2.553   2.648  0.1962  0.0860 -0.0936
19064THY     HO67055   5.633   2.543   2.701 -1.6166  2.8939 -0.7926
19064THY    CA167056   5.461   2.514   2.735 -0.1811  0.2606  0.1215
19064THY    CA267057   5.330   2.501   2.684  0.3001 -0.0684  0.1409
19064THY    CP167058   5.288   2.518   2.542 -0.1415 -0.0900 -0.7591
19064THY    HP167059   5.380   2.515   2.483 -0.2987 -0.3468 -0.5624
19064THY    CP267060   5.205   2.645   2.537 -0.1602  0.4572 -0.8856
19064THY    HP267061   5.175   2.686   2.440  0.4181  1.0350  1.0099
19064THY    HP367062   5.265   2.734   2.561 -1.2135 -3.4426  1.1185
19064THY    HP467063   5.109   2.652   2.590 -0.9015 -1.0184  1.1145
19064THY    CP367064   5.212   2.394   2.500  0.0766 -0.3589 -0.1822
19064THY    HP567065   5.256   2.298   2.528 -0.4125 -0.6071 -0.4761
19064THY    HP667066   5.209   2.384   2.391  0.5144 -0.2154 -2.3288
19064THY    HP767067   5.110   2.403   2.538 -0.5312 -2.2718  1.9376
19064THY    CA367068   5.232   2.476   2.784  0.2540  0.1611  0.5335
19064THY    HA367069   5.127   2.458   2.763  0.4586 -0.7242  0.3274
19064THY    CA467070   5.269   2.468   2.916  0.6868 -0.3774 -0.2119
19064THY    HA467071   5.194   2.462   2.994  0.1970 -0.1534  4.9113
19064THY    CA567072   5.400   2.487   2.959 -0.2559  0.3614  0.8582
19064THY    CM167073   5.432   2.484   3.108 -0.1984  0.4007  0.0753
19064THY    HM167074   5.349   2.436   3.161  1.1890  1.8266 -0.8401
19064THY    HM267075   5.444   2.583   3.154 -0.7864 -1.2790  0.9616
19064THY    HM367076   5.512   2.415   3.137 -0.4503  0.2347 -0.2923
19064THY    CA667077   5.493   2.509   2.867 -0.3577 -0.1124 -0.1233
19064THY    HA667078   5.592   2.536   2.902 -0.1254 -1.4678  0.8954
19065THY      O67079   8.397   8.665   7.658  0.1510 -0.0903  0.5178
19065THY     HO67080   8.425   8.705   7.742  1.5534 -0.7050  0.8733
19065THY    CA167081   8.414   8.757   7.570  0.1361 -0.1468 -0.7818
19065THY    CA267082   8.382   8.734   7.432  0.9056 -0.8798 -0.7100
19065THY    CP167083   8.342   8.605   7.371  0.5800  0.0076 -0.0943
19065THY    HP167084   8.350   8.534   7.453  0.0691  2.4901  2.5272
19065THY    CP267085   8.418   8.564   7.247 -0.6336  0.6083  0.3007
19065THY    HP267086   8.391   8.630   7.163  2.0274  1.2870  2.3969
19065THY    HP367087   8.402   8.456   7.236 -1.4376  0.9051  0.3786
19065THY    HP467088   8.527   8.571   7.248 -0.3870 -0.4441 -2.1127
19065THY    CP367089   8.197   8.588   7.335  0.2270 -0.3843  0.0346
19065THY    HP567090   8.179   8.485   7.302 -0.8683 -1.2126  0.4701
19065THY    HP667091   8.159   8.664   7.265 -2.7745  2.5173  1.4652
19065THY    HP767092   8.137   8.611   7.423  1.1801  0.8315 -1.9103
19065THY    CA367093   8.396   8.846   7.346 -0.1743  0.2914  0.2469
19065THY    HA367094   8.363   8.844   7.243  1.6910 -0.3223 -0.4507
19065THY    CA467095   8.430   8.975   7.395 -0.6386  0.5857  0.2155
19065THY    HA467096   8.444   9.061   7.331  1.4648  0.6588 -0.0222
19065THY    CA567097   8.466   8.992   7.529  0.0137  0.1802  0.7113
19065THY    CM167098   8.481   9.134   7.578 -0.2424  0.2598  0.1017
19065THY    HM167099   8.553   9.188   7.515 -0.9881 -0.1462  0.6544
19065THY    HM267100   8.530   9.150   7.675  1.0944 -0.3580 -0.1277
19065THY    HM367101   8.385   9.187   7.571  0.9232  1.8026  2.5912
19065THY    CA667102   8.454   8.887   7.615 -0.7288 -0.3059  0.0566
19065THY    HA667103   8.465   8.911   7.721  1.8051 -0.5676  0.3058
19066THY      O67104   2.241   9.080   2.255 -0.2879  0.1033  0.1051
19066THY     HO67105   2.275   9.171   2.257  2.3804  1.8941 -0.8243
19066THY    CA167106   2.112   9.089   2.291 -0.4749  0.9603  0.6120
19066THY    CA267107   2.038   8.979   2.327  0.5178 -0.6008  0.6121
19066THY    CP167108   2.106   8.841   2.324 -0.0469  0.0439 -0.5545
19066THY    HP167109   2.214   8.840   2.341  0.1493 -0.9957 -2.3608
19066THY    CP267110   2.086   8.771   2.190  0.3120  0.2143  0.5321
19066THY    HP267111   2.098   8.837   2.103 -1.0502 -0.6898 -0.3496
19066THY    HP367112   1.985   8.729   2.179  1.3941  2.3929 -3.1916
19066THY    HP467113   2.155   8.686   2.184 -1.3751 -1.7209 -0.8029
19066THY    CP367114   2.041   8.748   2.429  0.3061 -0.1761  0.8899
19066THY    HP567115   2.107   8.661   2.444  1.8175  0.9491  2.1497
19066THY    HP667116   1.942   8.708   2.407 -0.1241 -0.5696  2.1341
19066THY    HP767117   2.041   8.807   2.522 -0.3587  1.3510 -1.3786
19066THY    CA367118   1.904   8.991   2.362  0.6060 -0.1511 -1.0253
19066THY    HA367119   1.843   8.905   2.386 -1.4769  0.0519  0.4289
19066THY    CA467120   1.840   9.120   2.352  0.2386 -0.2799  0.1101
19066THY    HA467121   1.734   9.138   2.366  0.0034  0.6451 -1.6977
19066THY    CA567122   1.919   9.235   2.317  0.2718  0.0309  0.0768
19066THY    CM167123   1.857   9.374   2.297  0.5496 -0.2143  0.6977
19066THY    HM167124   1.867   9.438   2.385  1.3842 -0.9118  1.5784
19066THY    HM267125   1.752   9.368   2.266  0.2366  0.9671 -0.1475
19066THY    HM367126   1.903   9.430   2.213  3.1184 -0.2970 -1.3306
19066THY    CA667127   2.058   9.217   2.289 -0.0303 -0.7761  0.0317
19066THY    HA667128   2.119   9.297   2.249 -1.7872 -1.4762  1.0701
19067THY      O67129   2.533   0.927   5.987 -0.0284 -0.1239  0.1768
19067THY     HO67130   2.578   0.845   5.960  0.3656  2.3866 -0.5097
19067THY    CA167131   2.406   0.913   5.941  0.2712  0.5686  0.0905
19067THY    CA267132   2.312   1.014   5.945  1.2890 -0.2443 -0.8541
19067THY    CP167133   2.351   1.153   5.994  0.3586  0.3133 -0.0082
19067THY    HP167134   2.458   1.148   6.022 -0.0849  1.9555 -2.4656
19067THY    CP267135   2.268   1.197   6.115  0.3343 -0.0739  0.0492
19067THY    HP267136   2.299   1.137   6.202  0.3566 -0.7455 -0.9427
19067THY    HP367137   2.164   1.178   6.087 -0.0347  1.9506 -1.2189
19067THY    HP467138   2.284   1.304   6.130  0.0698 -3.6401  0.7307
19067THY    CP367139   2.353   1.251   5.872 -1.0088  0.6548 -0.8241
19067THY    HP567140   2.406   1.199   5.792  0.5044  2.3106 -1.9699
19067THY    HP667141   2.398   1.348   5.895 -0.0530  2.1796 -1.5839
19067THY    HP767142   2.251   1.269   5.835  0.1368 -2.6392 -0.4621
19067THY    CA367143   2.190   0.996   5.876  1.0069 -0.8955 -0.2304
19067THY    HA367144   2.125   1.081   5.857  0.4478 -0.5301 -0.5740
19067THY    CA467145   2.166   0.881   5.809  0.1598 -0.9261  0.0679
19067THY    HA467146   2.080   0.883   5.743  0.9269 -1.9934  2.4230
19067THY    CA567147   2.257   0.778   5.808  0.3527  0.1249  0.5064
19067THY    CM167148   2.241   0.637   5.732 -0.4980  0.0254 -0.4382
19067THY    HM167149   2.149   0.637   5.673 -1.3032  1.2330  0.7763
19067THY    HM267150   2.245   0.557   5.808  1.7920  0.1451 -0.2990
19067THY    HM367151   2.315   0.623   5.652 -1.0704 -0.5878 -0.0313
19067THY    CA667152   2.378   0.795   5.881  0.5592 -0.1865 -1.0237
19067THY    HA667153   2.454   0.718   5.871  0.9184 -1.9482 -0.4664
19068THY      O67154   6.770   7.689   7.157 -0.5752  0.2466 -0.6540
19068THY     HO67155   6.772   7.743   7.238  3.1538  0.3226 -0.6899
19068THY    CA167156   6.841   7.583   7.205  0.4066  0.0174 -0.3059
19068THY    CA267157   6.837   7.458   7.152 -0.5348  0.4885 -0.0573
19068THY    CP167158   6.739   7.418   7.038 -0.0007 -0.2298  0.1473
19068THY    HP167159   6.724   7.500   6.966 -1.0232 -0.0412  0.1407
19068THY    CP267160   6.603   7.387   7.086  0.1222 -0.1485  0.4354
19068THY    HP267161   6.593   7.288   7.132  1.5331 -2.8932 -1.1156
19068THY    HP367162   6.546   7.371   6.994 -1.0318  0.7895 -1.0461
19068THY    HP467163   6.564   7.456   7.162  1.2070  1.2646 -0.4379
19068THY    CP367164   6.794   7.302   6.954  0.0847 -0.1432 -0.1571
19068THY    HP567165   6.890   7.323   6.907  0.9777  2.3352  1.7858
19068THY    HP667166   6.716   7.285   6.878 -0.8098  0.7611 -0.2215
19068THY    HP767167   6.801   7.210   7.013 -1.0972 -2.1520 -1.6012
19068THY    CA367168   6.925   7.359   7.212 -0.2623  0.1918 -0.2463
19068THY    HA367169   6.919   7.254   7.184 -0.3183  0.7576 -0.3981
19068THY    CA467170   7.008   7.389   7.317  0.7129  0.3606 -0.2454
19068THY    HA467171   7.077   7.323   7.367  1.2360 -0.6375 -0.4707
19068THY    CA567172   7.005   7.518   7.372 -0.0951 -1.3766  0.2962
19068THY    CM167173   7.072   7.561   7.499 -0.2762 -0.0621 -0.1984
19068THY    HM167174   7.161   7.501   7.522  0.0244 -1.8489 -0.4848
19068THY    HM267175   7.007   7.546   7.587  1.0052  1.0700  0.6267
19068THY    HM367176   7.112   7.662   7.500  1.9172 -0.3166 -1.0108
19068THY    CA667177   6.921   7.609   7.311  0.3282 -0.2990 -0.3154
19068THY    HA667178   6.920   7.710   7.353  1.6995 -1.0962  0.0618
19069THY      O67179   3.399   8.468   2.229 -0.4940  0.1122  0.0899
19069THY     HO67180   3.365   8.398   2.287 -0.2292 -0.9447 -0.9603
19069THY    CA167181   3.396   8.419   2.101  0.2328 -0.4033 -0.4684
19069THY    CA267182   3.451   8.504   1.997  0.1357 -0.2630  0.5170
19069THY    CP167183   3.523   8.631   2.020  0.5490 -0.3519  0.0491
19069THY    HP167184   3.552   8.628   2.125 -1.6542  0.3719  1.2306
19069THY    CP267185   3.419   8.748   2.033  0.1982 -0.0214  0.5100
19069THY    HP267186   3.352   8.726   2.116  2.4944  1.2753 -2.2480
19069THY    HP367187   3.375   8.772   1.936  0.6560  0.2726  2.7849
19069THY    HP467188   3.473   8.836   2.070  3.0869  0.4450 -1.3088
19069THY    CP367189   3.645   8.675   1.938 -0.1559 -1.1375  0.0664
19069THY    HP567190   3.627   8.706   1.834  0.9546 -0.9673  1.3651
19069THY    HP667191   3.714   8.590   1.941  0.7064 -0.0147  0.7816
19069THY    HP767192   3.681   8.764   1.990 -1.1813 -0.5150  0.1373
19069THY    CA367193   3.437   8.445   1.868  0.0407  0.1977  0.4801
19069THY    HA367194   3.495   8.495   1.792  0.5283  2.1961  3.1787
19069THY    CA467195   3.377   8.320   1.845  0.0616  0.6333  0.4238
19069THY    HA467196   3.382   8.270   1.749 -4.1296  0.2054  0.4674
19069THY    CA567197   3.332   8.249   1.950  0.7439  0.5505  0.5439
19069THY    CM167198   3.268   8.115   1.924  0.0558 -0.2481 -0.8497
19069THY    HM167199   3.248   8.060   2.017  2.7534 -0.2602 -2.0231
19069THY    HM267200   3.346   8.054   1.877  0.2486  0.6463 -1.3192
19069THY    HM367201   3.179   8.135   1.864  0.7136 -0.5368  1.5841
19069THY    CA667202   3.340   8.295   2.080 -0.0120 -0.9427  0.5224
19069THY    HA667203   3.301   8.239   2.164 -0.4424 -0.4764  1.4967
19070THY      O67204   3.812   7.284   3.370 -0.6366 -0.1485 -0.2127
19070THY     HO67205   3.796   7.228   3.448  2.9640  0.0753 -1.1612
19070THY    CA167206   3.813   7.407   3.427 -0.0035 -0.2187  0.5720
19070THY    CA267207   3.852   7.526   3.355  0.2727  0.1333  0.0569
19070THY    CP167208   3.874   7.524   3.203 -0.1553  0.3511  0.6111
19070THY    HP167209   3.906   7.421   3.183 -2.0227 -1.0830  0.2546
19070THY    CP267210   3.986   7.623   3.152 -0.0941 -0.0378  0.2498
19070THY    HP267211   4.069   7.632   3.223  0.1579 -0.1590 -0.9400
19070THY    HP367212   3.949   7.725   3.132  2.0098 -0.8193  0.9044
19070THY    HP467213   4.036   7.595   3.059  0.6150  0.9451 -1.9583
19070THY    CP367214   3.749   7.537   3.116  0.9798  0.1044  0.5100
19070THY    HP567215   3.774   7.523   3.010 -0.1679 -0.1624  0.3624
19070THY    HP667216   3.700   7.635   3.123 -0.6551  0.9439 -0.3285
19070THY    HP767217   3.677   7.460   3.148  0.1171 -0.9348  0.8502
19070THY    CA367218   3.854   7.656   3.422 -0.2710 -0.2385 -0.1397
19070THY    HA367219   3.878   7.747   3.367  1.0553  0.3348 -0.1166
19070THY    CA467220   3.824   7.654   3.556  0.3512 -0.4437 -0.0870
19070THY    HA467221   3.820   7.743   3.618  1.4099  2.3173 -1.8519
19070THY    CA567222   3.773   7.536   3.620 -0.6281  0.4755 -0.2723
19070THY    CM167223   3.704   7.553   3.755  0.3961  0.3647  0.3414
19070THY    HM167224   3.719   7.466   3.820  0.5461 -0.5676 -0.3522
19070THY    HM267225   3.596   7.563   3.745  0.1641 -0.2154 -1.9777
19070THY    HM367226   3.733   7.645   3.807  0.1077  0.2486  0.4981
19070THY    CA667227   3.776   7.413   3.560 -0.1946 -0.1149  0.8735
19070THY    HA667228   3.744   7.321   3.609  0.1711 -1.5211 -0.0476
19071THY      O67229   7.394   5.086   4.627  0.0240  0.2814 -0.0398
19071THY     HO67230   7.412   5.159   4.690  0.2391 -1.4365  1.4592
19071THY    CA167231   7.462   5.131   4.517 -0.0678 -0.5102 -1.0115
19071THY    CA267232   7.432   5.096   4.385 -0.3225 -0.1674  0.0169
19071THY    CP167233   7.303   5.017   4.364  0.0667 -0.4557 -0.2340
19071THY    HP167234   7.231   5.046   4.441 -0.8974 -1.4151 -0.0177
19071THY    CP267235   7.343   4.870   4.384  0.0853  0.4559  0.6702
19071THY    HP267236   7.419   4.841   4.311 -0.4060  0.1714  0.0818
19071THY    HP367237   7.256   4.807   4.362  1.7122  0.7825 -1.8087
19071THY    HP467238   7.368   4.850   4.489 -1.3441  0.1638 -3.6797
19071THY    CP367239   7.238   5.027   4.220  0.5467 -0.5876 -0.8011
19071THY    HP567240   7.199   5.128   4.199  2.1980 -0.0603 -0.0079
19071THY    HP667241   7.151   4.961   4.213 -0.7756 -0.7487  0.8986
19071THY    HP767242   7.316   5.002   4.147  0.4570 -1.2166  0.6290
19071THY    CA367243   7.506   5.151   4.276  0.3846 -0.5629 -0.1331
19071THY    HA367244   7.474   5.131   4.174 -0.2229 -0.8304  2.0250
19071THY    CA467245   7.618   5.231   4.307 -0.3648 -0.5154 -0.2901
19071THY    HA467246   7.664   5.277   4.220 -0.3535 -0.7166 -0.6747
19071THY    CA567247   7.650   5.263   4.441  0.1069 -0.0770  0.3475
19071THY    CM167248   7.783   5.328   4.471  0.2600 -0.0770  0.7339
19071THY    HM167249   7.827   5.361   4.376  0.3445 -0.7305 -1.1542
19071THY    HM267250   7.849   5.254   4.517 -0.2545 -1.7690 -0.8609
19071THY    HM367251   7.758   5.411   4.539 -1.7639  1.9068 -1.3437
19071THY    CA667252   7.572   5.209   4.542  0.2409  0.2575  0.2216
19071THY    HA667253   7.601   5.226   4.645 -1.9110  0.8689  0.5440
19072THY      O67254   2.010   9.169   2.641 -0.3739 -0.2321  0.0478
19072THY     HO67255   1.930   9.132   2.599 -1.6577  3.2081 -1.5497
19072THY    CA167256   1.968   9.284   2.688 -0.8056  0.5581  0.7138
19072THY    CA267257   2.055   9.361   2.761  0.5039  0.0265 -0.7106
19072THY    CP167258   2.192   9.317   2.802 -0.0548  0.3764  0.4934
19072THY    HP167259   2.218   9.216   2.771 -0.0903 -0.4890  0.7412
19072THY    CP267260   2.209   9.328   2.957 -0.3456  0.6240  0.0167
19072THY    HP267261   2.151   9.248   3.004 -2.2125  0.4748  1.2174
19072THY    HP367262   2.183   9.423   3.004  0.2704  1.0758 -0.0313
19072THY    HP467263   2.316   9.313   2.978 -0.0892 -0.7851 -0.2739
19072THY    CP367264   2.292   9.409   2.746 -0.3398  0.1623 -0.5246
19072THY    HP567265   2.303   9.510   2.789 -0.3601 -3.4939  1.2173
19072THY    HP667266   2.290   9.425   2.637  1.1627  0.4207  2.0752
19072THY    HP767267   2.392   9.364   2.749  0.5109 -2.2347  0.9668
19072THY    CA367268   2.007   9.486   2.810 -0.1810 -0.5243 -0.0000
19072THY    HA367269   2.072   9.553   2.865 -0.6296 -0.7537  0.6351
19072THY    CA467270   1.877   9.515   2.788  0.1705 -1.3099  0.4336
19072THY    HA467271   1.830   9.601   2.834  0.1561  2.4320 -1.3574
19072THY    CA567272   1.800   9.441   2.704  0.3506  1.0304  0.3834
19072THY    CM167273   1.650   9.485   2.685 -0.6084  0.2033  0.2103
19072THY    HM167274   1.625   9.490   2.579  4.3181 -1.1705  0.9616
19072THY    HM267275   1.637   9.583   2.733  0.9014 -0.4077  0.7395
19072THY    HM367276   1.601   9.413   2.751 -1.8844  1.6521  2.2847
19072THY    CA667277   1.844   9.321   2.653 -0.2985  0.3745  0.5077
19072THY    HA667278   1.779   9.267   2.584 -1.0548 -0.6170  2.5506
19073THY      O67279   0.574   7.552   7.597 -0.5223  0.3166 -0.7702
19073THY     HO67280   0.536   7.539   7.686 -0.7840  0.4583  0.7730
19073THY    CA167281   0.476   7.624   7.521 -0.0962 -0.2085 -0.4218
19073THY    CA267282   0.488   7.630   7.381 -0.2825 -0.3561 -0.3061
19073THY    CP167283   0.613   7.578   7.308  0.4392  0.6481 -0.4807
19073THY    HP167284   0.648   7.484   7.352  0.6256  0.2780 -0.5828
19073THY    CP267285   0.718   7.691   7.288  1.1350 -0.7413  0.2996
19073THY    HP267286   0.766   7.725   7.380  0.6566 -0.7428  1.0143
19073THY    HP367287   0.676   7.780   7.239 -0.5834  1.8966  1.0700
19073THY    HP467288   0.803   7.638   7.245  1.8504  1.4153 -0.3940
19073THY    CP367289   0.567   7.534   7.164  0.2256  0.4833 -0.0535
19073THY    HP567290   0.646   7.479   7.110 -0.8758 -4.2052  2.4399
19073THY    HP667291   0.545   7.616   7.094  0.5788 -0.1044 -0.4500
19073THY    HP767292   0.479   7.471   7.179 -0.6418 -0.5494  0.8809
19073THY    CA367293   0.402   7.721   7.315  0.1339 -0.6884 -0.1334
19073THY    HA367294   0.413   7.740   7.209 -2.7055 -1.1403 -0.5578
19073THY    CA467295   0.300   7.779   7.384  0.1626 -0.3462  0.0023
19073THY    HA467296   0.239   7.853   7.333  0.4855  0.7785  1.0955
19073THY    CA567297   0.267   7.745   7.518  0.5339 -0.0369  0.4804
19073THY    CM167298   0.147   7.807   7.589 -0.0815 -0.4921 -0.0874
19073THY    HM167299   0.109   7.897   7.539 -1.0066 -0.5209 -0.4833
19073THY    HM267300   0.181   7.837   7.688  1.5124 -1.5407  1.7976
19073THY    HM367301   0.065   7.734   7.591 -2.4943  0.0756  2.5016
19073THY    CA667302   0.362   7.663   7.584 -0.4348 -0.1409 -0.1014
19073THY    HA667303   0.353   7.642   7.690  3.4838  0.4066  0.1646
19074THY      O67304   0.440   4.475   4.787  0.0823 -0.6868 -0.0674
19074THY     HO67305   0.475   4.385   4.799 -0.5459 -0.8287 -0.3331
19074THY    CA167306   0.407   4.477   4.655  0.3435  0.4068  0.5196
19074THY    CA267307   0.344   4.588   4.596 -0.6378 -0.0460 -0.4325
19074THY    CP167308   0.309   4.710   4.679 -0.0505  1.1733  0.7195
19074THY    HP167309   0.371   4.710   4.769  1.5232  0.1653 -0.8907
19074THY    CP267310   0.172   4.710   4.739  0.7639  0.2517 -0.5634
19074THY    HP267311   0.132   4.812   4.739 -0.6332  1.3584 -1.0664
19074THY    HP367312   0.162   4.671   4.841  1.3407  0.7988  0.7010
19074THY    HP467313   0.095   4.654   4.684 -0.1932  1.4989 -0.5349
19074THY    CP367314   0.328   4.842   4.601 -0.2674 -0.5697  0.3596
19074THY    HP567315   0.250   4.859   4.525 -0.6244 -0.3656 -0.3443
19074THY    HP667316   0.429   4.835   4.558 -0.0647  0.1620 -2.7046
19074THY    HP767317   0.324   4.929   4.667 -0.7880 -0.2657  0.1061
19074THY    CA367318   0.287   4.581   4.472  0.2889 -0.0480  0.1899
19074THY    HA367319   0.231   4.667   4.436 -0.0558  1.8748  0.8210
19074THY    CA467320   0.314   4.467   4.396 -0.6689 -0.2375  0.2787
19074THY    HA467321   0.266   4.453   4.300  0.6896 -0.7063 -1.4504
19074THY    CA567322   0.385   4.357   4.445  0.1953 -0.6701  0.2835
19074THY    CM167323   0.407   4.230   4.356  0.9134 -0.9431  0.0717
19074THY    HM167324   0.504   4.238   4.305  0.9859 -0.7297  0.5618
19074THY    HM267325   0.331   4.225   4.278 -0.9346  0.6048  1.9369
19074THY    HM367326   0.411   4.138   4.417 -0.8671 -0.5168  0.2402
19074THY    CA667327   0.436   4.360   4.581  0.2198 -0.1350  0.1022
19074THY    HA667328   0.496   4.280   4.624 -0.7464  1.9109  0.4422
19075THY      O67329   0.894   4.919   4.271 -0.1021 -0.1560 -0.0771
19075THY     HO67330   0.870   4.957   4.185  1.5538 -0.4681  0.3426
19075THY    CA167331   0.934   5.021   4.349  0.0417  0.0010 -0.1155
19075THY    CA267332   0.847   5.074   4.450  0.4706 -0.1927  0.3393
19075THY    CP167333   0.716   5.003   4.483 -0.4015 -0.2515 -0.4533
19075THY    HP167334   0.679   4.939   4.401 -0.4214 -0.4054 -0.2451
19075THY    CP267335   0.604   5.100   4.509 -0.7884  0.3932  0.4405
19075THY    HP267336   0.506   5.067   4.475 -0.9370  1.4878 -0.2909
19075THY    HP367337   0.616   5.191   4.449 -2.6620 -2.5392 -1.1185
19075THY    HP467338   0.590   5.130   4.614  0.4383  0.1326  2.0507
19075THY    CP367339   0.723   4.928   4.617  0.1604  0.5151  0.3614
19075THY    HP567340   0.777   4.991   4.689 -0.2519 -0.0254  1.3509
19075THY    HP667341   0.780   4.838   4.591  1.0734 -2.0072  1.5526
19075THY    HP767342   0.630   4.897   4.666  0.8547  1.9617  0.4684
19075THY    CA367343   0.906   5.176   4.532 -0.4071  0.2806 -0.2763
19075THY    HA367344   0.849   5.213   4.617  0.9677 -0.3778  3.7807
19075THY    CA467345   1.030   5.236   4.503  0.0934  0.0289  0.0093
19075THY    HA467346   1.067   5.317   4.564  1.2487 -0.6451  0.0059
19075THY    CA567347   1.100   5.190   4.390 -0.0065  0.6661 -0.8069
19075THY    CM167348   1.228   5.253   4.352  0.1528 -0.7800 -0.5051
19075THY    HM167349   1.249   5.337   4.419 -0.2257 -0.5204 -0.6095
19075THY    HM267350   1.225   5.284   4.247 -0.9386 -1.0414 -1.4397
19075THY    HM367351   1.313   5.187   4.372 -0.6212  0.1329 -1.2552
19075THY    CA667352   1.057   5.081   4.314  0.0965  0.4877 -0.6489
19075THY    HA667353   1.117   5.036   4.236  1.9320  2.8786 -2.6154
19076THY      O67354   4.919   4.717   5.055 -1.0385 -0.4553  0.7862
19076THY     HO67355   4.949   4.804   5.087 -2.8520  4.9749 -0.2387
19076THY    CA167356   4.994   4.627   5.127 -0.4512  0.5438 -0.1825
19076THY    CA267357   4.968   4.494   5.102  0.0386 -0.4389  0.2946
19076THY    CP167358   4.852   4.442   5.021  0.5991 -0.1100 -0.0596
19076THY    HP167359   4.771   4.517   5.026 -0.8728 -1.8190 -1.4446
19076THY    CP267360   4.786   4.314   5.068 -0.0195  0.1092 -0.6807
19076THY    HP267361   4.691   4.304   5.014 -0.1070  0.2694 -0.7223
19076THY    HP367362   4.769   4.321   5.176 -2.4052 -0.2990  0.9802
19076THY    HP467363   4.850   4.227   5.047 -1.5960  0.7732 -2.0803
19076THY    CP367364   4.892   4.449   4.871 -0.3038  0.0182 -0.7095
19076THY    HP567365   4.946   4.542   4.851  0.8155 -2.4513 -1.7951
19076THY    HP667366   4.807   4.438   4.803  1.4181 -2.8961  2.2043
19076THY    HP767367   4.966   4.376   4.834 -0.4435 -4.0163  0.9601
19076THY    CA367368   5.063   4.401   5.161 -0.1496  0.1658  0.3751
19076THY    HA367369   5.061   4.296   5.131 -0.6163  0.7000  0.2273
19076THY    CA467370   5.175   4.444   5.236 -0.1635 -0.8856  0.1625
19076THY    HA467371   5.242   4.365   5.269 -0.7330  0.0283  0.0431
19076THY    CA567372   5.187   4.582   5.268 -0.1249 -0.3162 -0.0571
19076THY    CM167373   5.307   4.621   5.353  0.3199 -0.0991  0.2519
19076THY    HM167374   5.378   4.537   5.356 -2.1276  2.6420 -1.9182
19076THY    HM267375   5.281   4.640   5.457  0.9849  0.5169 -1.9336
19076THY    HM367376   5.362   4.708   5.314  1.8905  1.1014 -0.1652
19076THY    CA667377   5.096   4.674   5.210  0.0090 -0.0746  0.0881
19076THY    HA667378   5.116   4.780   5.221  0.0933  0.4662  0.0191
19077THY      O67379   7.320   7.680   3.118 -0.1911 -0.4652  0.3215
19077THY     HO67380   7.353   7.669   3.209 -0.1246 -0.4678  0.5034
19077THY    CA167381   7.435   7.646   3.056 -0.1201  0.3758  0.0177
19077THY    CA267382   7.426   7.567   2.934 -0.2110 -0.0895 -0.4858
19077THY    CP167383   7.296   7.502   2.880  0.6447 -0.2337 -0.2346
19077THY    HP167384   7.208   7.526   2.941  1.2223  0.4631  0.1773
19077THY    CP267385   7.310   7.352   2.858  0.5118 -0.2417 -0.1846
19077THY    HP267386   7.390   7.327   2.787  2.8681  2.0446  0.4555
19077THY    HP367387   7.212   7.324   2.816  0.4367  0.2957 -0.7559
19077THY    HP467388   7.315   7.306   2.957 -0.3959 -0.1237 -0.0470
19077THY    CP367389   7.264   7.570   2.740 -0.4689  0.2640  0.2902
19077THY    HP567390   7.160   7.550   2.713 -0.6383  1.8780 -1.2926
19077THY    HP667391   7.338   7.521   2.674 -0.3480  0.9639 -0.4994
19077THY    HP767392   7.274   7.679   2.733  1.5668 -0.1140  0.1301
19077THY    CA367393   7.544   7.536   2.869  0.4398 -0.0834  0.2346
19077THY    HA367394   7.548   7.471   2.782 -0.3797  1.1344 -1.5137
19077THY    CA467395   7.662   7.585   2.919 -0.8836 -0.3008  0.1987
19077THY    HA467396   7.750   7.570   2.858 -0.3518  0.2302  1.0373
19077THY    CA567397   7.670   7.665   3.028 -0.5916 -0.4838 -0.3070
19077THY    CM167398   7.804   7.722   3.069 -0.3476 -0.3876  0.1036
19077THY    HM167399   7.788   7.816   3.123 -0.7091  1.2533 -0.8709
19077THY    HM267400   7.879   7.723   2.989  0.2590  0.0295 -2.7403
19077THY    HM367401   7.831   7.651   3.148  0.0684  0.7931  1.5420
19077THY    CA667402   7.550   7.705   3.104  0.1487  0.3703 -0.1382
19077THY    HA667403   7.549   7.779   3.183 -0.7307 -0.4325  0.7290
19078THY      O67404   3.109   0.526   5.767  0.2326 -0.2206  0.3996
19078THY     HO67405   3.118   0.544   5.672 -1.2530 -0.4769 -0.0273
19078THY    CA167406   3.234   0.510   5.818 -0.0362 -0.1320  0.0463
19078THY    CA267407   3.259   0.434   5.935  0.6061 -0.0181  0.1469
19078THY    CP167408   3.145   0.375   6.016  0.0938  0.5165  0.4105
19078THY    HP167409   3.049   0.396   5.966 -0.0546  0.3340 -0.6131
19078THY    CP267410   3.118   0.436   6.160 -0.4717 -0.3459 -0.2371
19078THY    HP267411   3.204   0.409   6.222  1.9325 -3.3896 -0.0766
19078THY    HP367412   3.034   0.387   6.211  0.5253 -0.5675 -2.2802
19078THY    HP467413   3.093   0.543   6.154  1.2905 -1.8415  0.1413
19078THY    CP367414   3.152   0.220   6.039  1.2612  0.0099  0.0230
19078THY    HP567415   3.174   0.168   5.945  0.6176 -0.1381  0.0121
19078THY    HP667416   3.054   0.183   6.070  0.9382  0.1890  1.0027
19078THY    HP767417   3.223   0.198   6.120 -0.4487  1.3375 -0.8081
19078THY    CA367418   3.397   0.419   5.975 -0.7092  0.1632 -0.3685
19078THY    HA367419   3.422   0.376   6.071 -0.4655  0.2837  0.0362
19078THY    CA467420   3.502   0.477   5.900 -0.3726 -0.0160 -0.4438
19078THY    HA467421   3.606   0.466   5.930 -0.3442  0.2245  0.4194
19078THY    CA567422   3.468   0.554   5.786 -0.5079 -0.3534  0.0091
19078THY    CM167423   3.577   0.613   5.708 -1.5435 -0.2416 -0.1439
19078THY    HM167424   3.638   0.678   5.771  1.3466 -0.4736 -2.4232
19078THY    HM267425   3.546   0.668   5.619 -0.2355 -0.8937 -0.4403
19078THY    HM367426   3.640   0.533   5.667  0.7852  0.0372  1.4565
19078THY    CA667427   3.337   0.559   5.733  0.0328 -0.6390 -0.2382
19078THY    HA667428   3.321   0.615   5.641  1.5944 -0.3440  0.7489
19079THY      O67429   5.435   3.377   4.801  0.1574  0.4008  0.3066
19079THY     HO67430   5.419   3.450   4.864  0.8165  1.3723 -0.3665
19079THY    CA167431   5.565   3.349   4.814  0.9902 -0.0480 -0.0489
19079THY    CA267432   5.630   3.265   4.720 -0.3945  0.5367  0.1304
19079THY    CP167433   5.545   3.218   4.597  0.0573 -0.4398 -0.1297
19079THY    HP167434   5.455   3.276   4.577  1.7317  0.5232  3.0447
19079THY    CP267435   5.494   3.081   4.626 -0.7418  0.2876 -0.4460
19079THY    HP267436   5.446   3.043   4.536  0.2156 -1.1171  1.5048
19079THY    HP367437   5.424   3.093   4.710  0.7713  1.6968 -1.0316
19079THY    HP467438   5.573   3.011   4.656 -0.6090 -0.9138 -0.8345
19079THY    CP367439   5.628   3.225   4.467 -0.6283 -0.0999  0.0528
19079THY    HP567440   5.563   3.211   4.379 -0.1055 -0.1496 -2.4451
19079THY    HP667441   5.699   3.142   4.459 -2.1037 -3.4837 -1.0771
19079THY    HP767442   5.685   3.318   4.453 -0.8856 -0.0265  0.2248
19079THY    CA367443   5.767   3.231   4.736  0.2773 -0.4565  0.1651
19079THY    HA367444   5.813   3.158   4.670  0.7071 -0.3599  0.3482
19079THY    CA467445   5.835   3.283   4.852  0.5563 -0.3008 -0.3190
19079THY    HA467446   5.937   3.258   4.878  0.7244 -1.4813 -0.9692
19079THY    CA567447   5.761   3.367   4.943 -1.1069  0.6525 -0.4947
19079THY    CM167448   5.835   3.410   5.066  0.1364  0.1230 -0.1668
19079THY    HM167449   5.835   3.519   5.074 -1.8017  0.7669 -0.1839
19079THY    HM267450   5.940   3.379   5.071 -0.2604  4.4012 -1.4848
19079THY    HM367451   5.788   3.384   5.161 -0.1530 -0.2582 -1.0964
19079THY    CA667452   5.626   3.400   4.924 -0.3836 -0.3990  0.3366
19079THY    HA667453   5.576   3.467   4.993  1.6963  0.7632  0.8041
19080THY      O67454   2.766   6.489   3.864 -0.0048  0.3781 -0.2069
19080THY     HO67455   2.804   6.491   3.954  3.0358 -0.7935  0.6068
19080THY    CA167456   2.636   6.540   3.871 -1.0310  0.4276 -0.1307
19080THY    CA267457   2.527   6.512   3.779 -0.5408  0.0257 -0.6637
19080THY    CP167458   2.554   6.427   3.651  0.4219 -0.5151  0.4211
19080THY    HP167459   2.661   6.411   3.630  1.0142  2.3021  0.2951
19080THY    CP267460   2.495   6.496   3.526  0.2999 -0.3464  0.2520
19080THY    HP267461   2.387   6.493   3.546  0.5187  0.9049 -2.1315
19080THY    HP367462   2.513   6.434   3.437 -2.2449 -1.0743  0.4564
19080THY    HP467463   2.529   6.600   3.529 -0.8862  0.2000  0.6419
19080THY    CP367464   2.509   6.281   3.673 -0.3159 -0.7183 -0.0320
19080THY    HP567465   2.494   6.231   3.577  1.3412 -0.2695 -1.4882
19080THY    HP667466   2.416   6.280   3.732  0.4015  0.4418 -0.0290
19080THY    HP767467   2.589   6.224   3.722 -0.2871 -2.4452 -1.5418
19080THY    CA367468   2.398   6.562   3.811  0.1171 -0.4295 -0.5996
19080THY    HA367469   2.316   6.544   3.743 -0.2754  0.2223 -1.3680
19080THY    CA467470   2.379   6.645   3.923  0.2913  0.7397  0.6399
19080THY    HA467471   2.281   6.684   3.949 -0.3109 -0.5599  0.0421
19080THY    CA567472   2.487   6.673   4.005 -0.1048  0.1022  0.6672
19080THY    CM167473   2.475   6.759   4.130  0.1034  0.2290 -0.8979
19080THY    HM167474   2.483   6.866   4.108  1.2201  1.8598 -0.6142
19080THY    HM267475   2.550   6.731   4.205  1.5078 -0.5248  0.7246
19080THY    HM367476   2.382   6.746   4.187 -0.0478 -0.0539 -1.0718
19080THY    CA667477   2.610   6.622   3.976 -1.2138  0.2052 -0.0979
19080THY    HA667478   2.694   6.649   4.040  1.4896 -1.7455 -3.0784
19081THY      O67479   6.633   3.005   4.770 -0.1988  0.3244 -0.4869
19081THY     HO67480   6.550   2.998   4.820 -1.3693 -1.5294 -0.4298
19081THY    CA167481   6.597   3.054   4.652  0.1813  0.1308 -0.2390
19081THY    CA267482   6.684   3.124   4.555 -0.0179 -1.3174  0.2146
19081THY    CP167483   6.820   3.165   4.606 -0.2183  0.0749 -0.0516
19081THY    HP167484   6.841   3.107   4.696  1.1324  1.3332  2.2224
19081THY    CP267485   6.813   3.312   4.654 -0.0724 -0.0234  0.7852
19081THY    HP267486   6.724   3.333   4.715 -0.6887 -0.8560  0.6389
19081THY    HP367487   6.808   3.376   4.565  1.6727 -1.1989 -0.6214
19081THY    HP467488   6.898   3.342   4.717  0.6302 -1.5162  2.0886
19081THY    CP367489   6.935   3.138   4.504 -0.0528 -0.0359 -0.2729
19081THY    HP567490   6.918   3.198   4.413  1.2361 -0.6495 -0.8113
19081THY    HP667491   6.943   3.034   4.474 -0.4603  1.3307 -0.7227
19081THY    HP767492   7.030   3.170   4.548  0.2513  0.3390 -1.6702
19081THY    CA367493   6.631   3.169   4.437 -0.0998 -0.4367 -0.2558
19081THY    HA367494   6.679   3.238   4.369 -0.6076  1.4342  2.0832
19081THY    CA467495   6.504   3.127   4.402 -0.1764 -0.3154  0.1081
19081THY    HA467496   6.464   3.158   4.305  1.9468 -1.1068  0.5787
19081THY    CA567497   6.426   3.048   4.487 -0.0282 -0.3795 -0.4865
19081THY    CM167498   6.284   3.011   4.453 -0.2829 -0.3232 -0.4576
19081THY    HM167499   6.270   2.902   4.448  1.1374 -1.2508 -0.6212
19081THY    HM267500   6.259   3.053   4.355 -0.9669  0.7923  1.9407
19081THY    HM367501   6.208   3.041   4.528  1.0178  0.5502  0.7857
19081THY    CA667502   6.472   3.017   4.616 -0.1773 -0.5859 -0.0647
19081THY    HA667503   6.407   2.960   4.682 -1.1961 -1.3341  0.1948
19082THY      O67504   4.296   0.932   2.457  0.1772  0.0952 -0.3102
19082THY     HO67505   4.250   1.015   2.435 -0.3624 -0.1247 -0.6661
19082THY    CA167506   4.430   0.951   2.450 -0.2059 -0.1464 -0.5398
19082THY    CA267507   4.518   0.848   2.482 -0.0638 -0.2109  0.6474
19082THY    CP167508   4.468   0.715   2.540 -0.8987  0.0746 -0.4957
19082THY    HP167509   4.369   0.693   2.498 -0.6778  0.3482 -2.1644
19082THY    CP267510   4.443   0.724   2.691  0.2872 -0.0922 -0.0727
19082THY    HP267511   4.446   0.621   2.730  1.8252  2.8106  0.9800
19082THY    HP367512   4.347   0.767   2.724 -0.8557 -0.8291 -1.9082
19082THY    HP467513   4.519   0.784   2.740 -1.2055  1.2415  0.8110
19082THY    CP367514   4.566   0.600   2.510  0.2894 -0.3397 -0.4779
19082THY    HP567515   4.660   0.617   2.565 -0.0740 -0.2536  1.4790
19082THY    HP667516   4.594   0.587   2.404  0.9378 -0.4285  1.3965
19082THY    HP767517   4.530   0.508   2.557 -1.7464  2.0633  1.3969
19082THY    CA367518   4.657   0.885   2.470  0.1250  0.5169  0.3347
19082THY    HA367519   4.729   0.810   2.501  0.4609  1.1229  0.8946
19082THY    CA467520   4.696   1.014   2.421 -0.3225 -0.0010 -0.2972
19082THY    HA467521   4.802   1.035   2.413 -0.5535  0.6604  1.3386
19082THY    CA567522   4.603   1.120   2.399  0.7088  0.6737 -1.0525
19082THY    CM167523   4.650   1.266   2.374  0.2822 -0.0169  0.0879
19082THY    HM167524   4.556   1.322   2.364 -0.2709 -1.9005 -1.0823
19082THY    HM267525   4.698   1.262   2.275 -0.2925 -0.2971 -3.4905
19082THY    HM367526   4.724   1.308   2.444  1.8818 -0.0752 -2.3933
19082THY    CA667527   4.464   1.086   2.409  0.1637 -0.0866 -0.5171
19082THY    HA667528   4.391   1.166   2.402  0.0590 -1.3691 -0.7061
19083THY      O67529   2.763   7.701   7.565  0.3073  0.0403 -0.1091
19083THY     HO67530   2.844   7.649   7.550  0.2841  1.1380 -0.4949
19083THY    CA167531   2.802   7.829   7.561  0.5915  0.6034 -1.5932
19083THY    CA267532   2.717   7.923   7.499  0.0784 -0.3299  0.3241
19083THY    CP167533   2.591   7.872   7.426 -0.3707 -0.3440 -0.1637
19083THY    HP167534   2.612   7.778   7.373 -2.5506 -1.6151 -0.0004
19083THY    CP267535   2.548   7.960   7.304 -0.2409 -0.4241 -0.3038
19083THY    HP267536   2.524   8.062   7.335  2.1272 -1.6174  0.6718
19083THY    HP367537   2.464   7.915   7.249  0.9796 -2.3062 -0.3802
19083THY    HP467538   2.625   7.962   7.227  0.9582  0.7528 -0.0983
19083THY    CP367539   2.470   7.851   7.522  0.8778  0.2352  0.2103
19083THY    HP567540   2.447   7.934   7.589  0.8365  1.2257 -0.5839
19083THY    HP667541   2.475   7.763   7.587  0.1237 -2.1792 -1.7530
19083THY    HP767542   2.382   7.830   7.460  0.8062  0.2528  0.4571
19083THY    CA367543   2.754   8.063   7.506 -0.0752 -0.0078  0.3488
19083THY    HA367544   2.688   8.141   7.469 -0.7401  0.6395  0.1020
19083THY    CA467545   2.876   8.099   7.563  0.2976 -0.2168 -0.1893
19083THY    HA467546   2.912   8.201   7.559 -1.3041 -1.4441  0.3675
19083THY    CA567547   2.962   8.004   7.619  0.1630  0.4227 -0.3433
19083THY    CM167548   3.106   8.046   7.667  0.0015 -0.3674 -0.0141
19083THY    HM167549   3.170   7.958   7.659 -1.9913 -3.4825 -1.3302
19083THY    HM267550   3.100   8.082   7.771 -0.0150  0.8873 -3.3412
19083THY    HM367551   3.160   8.122   7.609  1.6182  0.5735 -0.3841
19083THY    CA667552   2.924   7.866   7.618  0.5116  0.0230 -0.2690
19083THY    HA667553   2.987   7.788   7.659 -0.3166 -1.6186 -1.8902
19084THY      O67554   1.580   5.365   5.393  0.1945 -0.6059  0.1464
19084THY     HO67555   1.571   5.358   5.489  2.0129 -0.5187 -2.1688
19084THY    CA167556   1.636   5.485   5.383 -0.3471  0.1540  0.4397
19084THY    CA267557   1.606   5.574   5.277  0.3840  0.2581  0.6451
19084THY    CP167558   1.504   5.529   5.169 -0.0066 -0.4907  0.1671
19084THY    HP167559   1.461   5.430   5.186  0.1453  0.3351  0.2377
19084THY    CP267560   1.580   5.511   5.037 -0.6224  0.3242 -0.3119
19084THY    HP267561   1.509   5.463   4.969 -0.8411  0.1309  0.2807
19084THY    HP367562   1.674   5.458   5.056 -0.0140  2.0497  1.2565
19084THY    HP467563   1.619   5.609   5.006  0.4798 -0.1393 -0.8799
19084THY    CP367564   1.385   5.627   5.164 -0.3311 -0.0250  0.1492
19084THY    HP567565   1.409   5.734   5.155 -1.9066 -0.0243  0.5309
19084THY    HP667566   1.330   5.624   5.259 -0.0123  0.1655  0.3452
19084THY    HP767567   1.309   5.597   5.091 -2.9039  1.6377  2.1818
19084THY    CA367568   1.661   5.703   5.281  0.0509  0.5824  0.5055
19084THY    HA367569   1.635   5.768   5.198 -0.0430 -0.0740 -0.3589
19084THY    CA467570   1.751   5.730   5.381 -0.2501  0.5527 -0.1207
19084THY    HA467571   1.793   5.830   5.390  1.1202  0.6084 -0.6890
19084THY    CA567572   1.767   5.646   5.489 -0.5594  0.5840  0.4255
19084THY    CM167573   1.834   5.710   5.599  0.4526  0.6803 -0.1317
19084THY    HM167574   1.820   5.819   5.603  2.1171 -3.3553  0.4189
19084THY    HM267575   1.941   5.699   5.578  0.3945 -0.3823  1.0572
19084THY    HM367576   1.814   5.655   5.691 -2.1863 -0.0049 -0.4602
19084THY    CA667577   1.711   5.518   5.494  0.0517  0.7048  0.4037
19084THY    HA667578   1.726   5.470   5.591  1.7461 -0.5221 -1.7038
19085THY      O67579   6.668   8.174   7.337  0.2253 -0.2038 -0.1153
19085THY     HO67580   6.759   8.207   7.340  0.3551  0.1262 -0.4859
19085THY    CA167581   6.658   8.052   7.396  0.1226 -0.4060 -1.2475
19085THY    CA267582   6.557   7.964   7.367  0.5999 -0.2989  0.0337
19085THY    CP167583   6.444   8.012   7.275 -0.1433 -0.6754  0.1042
19085THY    HP167584   6.423   8.118   7.289 -1.3478  0.3203 -0.2460
19085THY    CP267585   6.314   7.941   7.313 -0.0014  0.5357 -0.0073
19085THY    HP267586   6.308   7.923   7.421  2.3313  0.4744 -1.5901
19085THY    HP367587   6.292   7.847   7.261 -4.2740 -0.7936  1.4849
19085THY    HP467588   6.230   8.003   7.279  0.0408 -0.1623 -0.3273
19085THY    CP367589   6.479   7.985   7.133  0.1779 -0.9129  0.1071
19085THY    HP567590   6.561   8.049   7.097 -0.7991  1.8379  3.1486
19085THY    HP667591   6.398   8.013   7.066  2.7830 -3.4043  2.3452
19085THY    HP767592   6.511   7.881   7.117 -0.1485 -1.3323  0.0722
19085THY    CA367593   6.568   7.836   7.419  0.0617 -0.9594 -0.3935
19085THY    HA367594   6.501   7.756   7.389 -0.5910  0.3511 -0.3703
19085THY    CA467595   6.677   7.812   7.509 -0.2259  0.6260  0.3783
19085THY    HA467596   6.683   7.714   7.557 -1.8327 -1.9205 -1.0750
19085THY    CA567597   6.764   7.914   7.550 -0.1948  0.2672  0.2425
19085THY    CM167598   6.868   7.885   7.652 -0.3211  0.0557  0.3486
19085THY    HM167599   6.847   7.928   7.751 -0.8096  0.3526 -0.5451
19085THY    HM267600   6.964   7.934   7.632 -0.1100 -0.6710 -0.3363
19085THY    HM367601   6.894   7.781   7.671  1.2604 -1.7138  0.3839
19085THY    CA667602   6.759   8.037   7.496 -0.1730  1.0143 -0.0902
19085THY    HA667603   6.837   8.111   7.511  0.8712 -2.2460 -0.4042
19086THY      O67604   8.322   7.742   4.598  0.0438 -0.3869 -0.5474
19086THY     HO67605   8.316   7.779   4.508 -3.8576  0.0225  0.3122
19086THY    CA167606   8.244   7.627   4.584  0.0338 -0.1792 -0.0422
19086THY    CA267607   8.183   7.568   4.698 -0.0514 -0.1375  0.0178
19086THY    CP167608   8.196   7.635   4.829  0.5548  0.5796 -0.0700
19086THY    HP167609   8.231   7.737   4.809  0.3050  1.0952  0.1191
19086THY    CP267610   8.282   7.557   4.924 -0.3881  0.0523 -0.0332
19086THY    HP267611   8.259   7.576   5.029 -0.3967  0.0477 -0.0199
19086THY    HP367612   8.387   7.584   4.904  0.1541  1.5043 -0.9669
19086THY    HP467613   8.267   7.450   4.909 -0.2630  3.1059 -0.5693
19086THY    CP367614   8.062   7.656   4.905 -0.1616 -0.4226 -1.0523
19086THY    HP567615   8.074   7.737   4.979  0.4678 -1.0445 -0.5655
19086THY    HP667616   8.036   7.561   4.954 -2.6530  1.0724  0.2896
19086THY    HP767617   7.970   7.681   4.851  0.3783 -1.4829 -1.3376
19086THY    CA367618   8.125   7.447   4.688  0.1387  0.4286  1.3573
19086THY    HA367619   8.066   7.391   4.760  1.1674  0.7652  0.6654
19086THY    CA467620   8.120   7.389   4.555  0.7772  0.1882 -0.4269
19086THY    HA467621   8.071   7.294   4.535  0.9111 -0.6719 -0.3295
19086THY    CA567622   8.174   7.451   4.444  0.1853  0.5805  0.8969
19086THY    CM167623   8.175   7.385   4.306 -0.3889 -0.1705  0.6487
19086THY    HM167624   8.238   7.443   4.237  0.7511  0.3019  0.0176
19086THY    HM267625   8.075   7.366   4.267  0.1805 -1.1278 -0.5431
19086THY    HM367626   8.236   7.293   4.310 -0.4964 -0.3492  0.5688
19086THY    CA667627   8.232   7.570   4.459  0.2016 -0.2509 -0.9352
19086THY    HA667628   8.277   7.622   4.375  0.5539  1.4258  1.6413
19087THY      O67629   1.356   2.254   2.433  0.3807  0.8506  0.2866
19087THY     HO67630   1.353   2.340   2.479 -1.1702  2.5726 -0.6197
19087THY    CA167631   1.412   2.176   2.533 -0.5967  0.0969  0.5446
19087THY    CA267632   1.500   2.069   2.500 -0.1397 -0.3262 -0.0421
19087THY    CP167633   1.522   2.032   2.348  0.0756  0.1021  0.3052
19087THY    HP167634   1.449   2.091   2.291 -1.6825  3.0448  1.1605
19087THY    CP267635   1.492   1.884   2.310 -0.4360 -0.5901  0.4823
19087THY    HP267636   1.517   1.809   2.386  0.6037  1.0460  2.3865
19087THY    HP367637   1.548   1.863   2.218  1.4452  0.6418 -0.1873
19087THY    HP467638   1.388   1.860   2.285 -0.6538  0.2842  0.4830
19087THY    CP367639   1.669   2.063   2.301  0.1521  0.3220 -0.5900
19087THY    HP567640   1.672   2.172   2.309  2.5569  1.7475 -0.7001
19087THY    HP667641   1.696   2.045   2.196  0.6616  0.1565  1.0373
19087THY    HP767642   1.745   2.023   2.369  0.8854 -0.1027  0.0653
19087THY    CA367643   1.558   1.996   2.605  0.6197  0.2050  0.6133
19087THY    HA367644   1.619   1.906   2.592  0.3442  0.7805  0.3375
19087THY    CA467645   1.521   2.030   2.738 -0.5672 -0.3929 -0.0250
19087THY    HA467646   1.576   1.978   2.816  1.3247 -1.2317  0.6766
19087THY    CA567647   1.432   2.136   2.768 -0.6641  0.5873 -0.2693
19087THY    CM167648   1.393   2.150   2.911  0.3128 -0.2759  0.1244
19087THY    HM167649   1.400   2.055   2.964 -1.3955 -0.8747 -0.3829
19087THY    HM267650   1.292   2.194   2.911  0.6563 -1.1142  0.9465
19087THY    HM367651   1.458   2.220   2.965 -1.3310  1.9280  0.0400
19087THY    CA667652   1.375   2.211   2.666 -0.0975  0.2928 -0.1042
19087THY    HA667653   1.300   2.286   2.694  0.0743  1.8208 -0.4636
19088THY      O67654   8.616   5.257   2.268  1.0260  0.4690 -0.2629
19088THY     HO67655   8.527   5.237   2.300 -0.1297 -2.1474  0.2196
19088THY    CA167656   8.642   5.188   2.156 -0.5467  0.3066  0.5855
19088THY    CA267657   8.700   5.252   2.036  0.0751 -0.3939  0.4722
19088THY    CP167658   8.741   5.400   2.026  0.2089  0.4893 -0.1382
19088THY    HP167659   8.724   5.463   2.115  0.9472  1.5952 -1.4493
19088THY    CP267660   8.671   5.479   1.912  0.2197  0.1132 -0.5500
19088THY    HP267661   8.672   5.428   1.815  1.5182 -0.0948 -0.1585
19088THY    HP367662   8.719   5.578   1.912 -0.8644 -1.1733  0.0091
19088THY    HP467663   8.565   5.496   1.938  0.4601  0.7425  0.0526
19088THY    CP367664   8.894   5.418   1.994  0.8546  0.0316 -0.4227
19088THY    HP567665   8.917   5.365   1.901 -1.4026 -1.1064  0.4779
19088THY    HP667666   8.952   5.381   2.080  1.0050 -0.5945 -1.7121
19088THY    HP767667   8.918   5.522   1.970 -1.5601 -0.6354  0.0197
19088THY    CA367668   8.733   5.166   1.928  0.2470  0.1212 -0.1978
19088THY    HA367669   8.775   5.209   1.838 -0.2956 -0.4636 -0.8755
19088THY    CA467670   8.716   5.028   1.941  0.7569 -0.4300  0.1751
19088THY    HA467671   8.741   4.962   1.858  0.3413  0.4753 -1.1741
19088THY    CA567672   8.658   4.976   2.057  0.1523 -0.2312  0.3588
19088THY    CM167673   8.665   4.820   2.071 -0.2488  0.4665 -0.5093
19088THY    HM167674   8.585   4.787   2.138  1.5597  1.4255 -3.2479
19088THY    HM267675   8.754   4.791   2.128 -1.0247  1.8088 -0.3249
19088THY    HM367676   8.664   4.768   1.974  1.1978  0.4958 -0.6241
19088THY    CA667677   8.627   5.053   2.167  0.3874  0.4152  0.4850
19088THY    HA667678   8.605   5.008   2.263  0.6897  0.8928  1.3497
19089THY      O67679   1.410   5.080   2.607 -0.2502 -0.4752  0.2658
19089THY     HO67680   1.500   5.090   2.641  0.4941 -2.2680 -0.0811
19089THY    CA167681   1.402   4.951   2.583 -0.1190 -0.3876 -0.5874
19089THY    CA267682   1.280   4.890   2.552  0.4348  0.7892  0.4987
19089THY    CP167683   1.149   4.977   2.540 -0.0123 -0.0928 -0.5795
19089THY    HP167684   1.176   5.083   2.548 -1.2580 -1.5876 -0.1003
19089THY    CP267685   1.070   4.951   2.670 -0.2999 -0.1808 -0.7273
19089THY    HP267686   1.015   4.856   2.663 -1.3322 -0.0080 -0.1587
19089THY    HP367687   0.993   5.028   2.680 -0.4912  1.7386 -1.1207
19089THY    HP467688   1.127   4.952   2.763 -0.7664  0.1508 -2.2396
19089THY    CP367689   1.073   4.960   2.405 -0.4060  0.5284 -0.6931
19089THY    HP567690   1.149   4.940   2.328 -0.1904 -0.1201  2.1493
19089THY    HP667691   1.009   5.044   2.377  1.0436 -2.0882 -0.3594
19089THY    HP767692   1.011   4.870   2.416 -1.0596  2.9496 -0.0310
19089THY    CA367693   1.279   4.752   2.525  0.0773 -0.1899 -0.2255
19089THY    HA367694   1.179   4.717   2.499  0.2920 -2.2896  0.5855
19089THY    CA467695   1.394   4.680   2.527  0.7891  0.0454 -0.1029
19089THY    HA467696   1.397   4.576   2.498 -0.0084  0.7767 -0.3463
19089THY    CA567697   1.515   4.745   2.558 -0.2628  0.2205 -0.6615
19089THY    CM167698   1.644   4.658   2.548  0.4337 -0.6225 -0.0804
19089THY    HM167699   1.688   4.650   2.648  0.5029 -0.5449  1.1089
19089THY    HM267700   1.711   4.701   2.473 -1.7656 -1.3180  2.3745
19089THY    HM367701   1.627   4.552   2.528 -0.1103  1.9516 -0.5645
19089THY    CA667702   1.519   4.877   2.596 -0.7035  0.3286 -0.4542
19089THY    HA667703   1.610   4.922   2.636 -1.3587  1.2595  0.0701
19090THY      O67704   6.023   4.180   5.741 -0.0382  0.3378  0.2312
19090THY     HO67705   6.050   4.123   5.815 -1.5718  1.3987  0.8149
19090THY    CA167706   5.919   4.251   5.794 -0.5501  0.3428  0.1254
19090THY    CA267707   5.902   4.388   5.761  0.4751  0.0327 -0.2582
19090THY    CP167708   5.987   4.456   5.656 -0.3507 -0.3981 -0.3007
19090THY    HP167709   6.060   4.386   5.613 -0.7395  1.3410 -1.8510
19090THY    CP267710   6.071   4.571   5.719  0.0779 -0.4484 -0.5814
19090THY    HP267711   6.135   4.532   5.799  0.1949 -0.3537 -0.2077
19090THY    HP367712   6.017   4.656   5.762 -0.1078  0.3028 -1.0711
19090THY    HP467713   6.137   4.611   5.641  2.0896  0.9429 -1.0063
19090THY    CP367714   5.896   4.514   5.550  0.2697 -0.5881 -0.2083
19090THY    HP567715   5.820   4.441   5.518  0.8022  2.2379 -2.1263
19090THY    HP667716   5.961   4.546   5.467 -0.0947 -1.4913 -1.7095
19090THY    HP767717   5.833   4.590   5.599 -1.9316  1.2273 -3.0189
19090THY    CA367718   5.800   4.459   5.836 -0.0547 -0.3049  0.3110
19090THY    HA367719   5.804   4.567   5.832 -0.7579  1.1982  0.4211
19090THY    CA467720   5.721   4.395   5.934 -0.4077 -0.4892 -0.1224
19090THY    HA467721   5.644   4.449   5.988 -0.8125 -0.1389 -1.0270
19090THY    CA567722   5.730   4.258   5.945  0.4000 -0.5464  0.0701
19090THY    CM167723   5.624   4.185   6.029  0.1255 -0.5508 -0.0893
19090THY    HM167724   5.520   4.209   6.003 -0.5848  2.3876  0.3838
19090THY    HM267725   5.623   4.224   6.131 -0.9210 -0.4779 -0.2771
19090THY    HM367726   5.625   4.076   6.019  0.4855 -3.1423  0.0670
19090THY    CA667727   5.834   4.184   5.885  0.6268  0.1623 -0.1212
19090THY    HA667728   5.844   4.077   5.902  1.5400 -2.8504 -0.6057
19091THY      O67729   6.904   7.918   3.177  0.0037 -0.2004 -0.3743
19091THY     HO67730   6.977   7.947   3.120  2.1202  0.1148 -4.3854
19091THY    CA167731   6.855   8.030   3.242 -0.3250  0.4654 -0.1586
19091THY    CA267732   6.717   8.038   3.277 -1.1423 -0.3716  0.8669
19091THY    CP167733   6.633   7.905   3.269  0.1878 -0.6065  0.3894
19091THY    HP167734   6.536   7.919   3.319  1.2115  1.4498  0.5375
19091THY    CP267735   6.685   7.792   3.361 -0.5987  0.3759 -0.0275
19091THY    HP267736   6.734   7.832   3.451 -1.4664  0.8564 -0.0241
19091THY    HP367737   6.749   7.720   3.310  0.5612 -2.6507  2.9357
19091THY    HP467738   6.603   7.723   3.383 -1.5032  0.3647  1.0169
19091THY    CP367739   6.607   7.850   3.127 -0.0494  0.7243  0.4287
19091THY    HP567740   6.553   7.756   3.143  2.1832  2.0186 -0.7099
19091THY    HP667741   6.699   7.841   3.067 -0.6240  0.0154 -0.9580
19091THY    HP767742   6.551   7.922   3.066  0.5173  0.2215  0.4612
19091THY    CA367743   6.667   8.167   3.323  0.5605  0.8729 -0.2320
19091THY    HA367744   6.564   8.173   3.357 -0.4674 -1.0592 -3.7834
19091THY    CA467745   6.752   8.276   3.333  0.2714  0.0444 -0.6792
19091THY    HA467746   6.707   8.368   3.370  1.9091  0.3336  0.0433
19091THY    CA567747   6.889   8.266   3.290 -0.2794 -0.1409  0.2173
19091THY    CM167748   6.988   8.378   3.313  0.0742  1.0115 -1.1584
19091THY    HM167749   7.083   8.332   3.342 -0.7407  2.5556 -1.9356
19091THY    HM267750   6.963   8.445   3.397  1.2059 -0.6106  1.4594
19091THY    HM367751   6.999   8.444   3.226  1.8612  0.9475 -1.4952
19091THY    CA667752   6.941   8.142   3.242  0.5879 -0.2362  0.3488
19091THY    HA667753   7.046   8.136   3.217  0.6635  0.1727 -0.0144
19092THY      O67754   4.634   1.158   6.309  0.2048 -0.0684  0.1693
19092THY     HO67755   4.639   1.099   6.232 -0.3373 -0.7996  1.0394
19092THY    CA167756   4.511   1.217   6.305  0.4638 -0.2467  0.4118
19092THY    CA267757   4.470   1.329   6.382  0.1463  0.1601  0.5133
19092THY    CP167758   4.569   1.380   6.491  0.7469  0.2687 -0.3580
19092THY    HP167759   4.671   1.346   6.472  0.5218 -1.9008  0.0757
19092THY    CP267760   4.521   1.330   6.630 -0.0340  0.3942 -0.6525
19092THY    HP267761   4.536   1.222   6.629 -2.3652  3.0920 -1.1009
19092THY    HP367762   4.414   1.348   6.645 -0.4196 -2.7728  0.4541
19092THY    HP467763   4.587   1.380   6.702 -2.5232  1.0236  2.0081
19092THY    CP367764   4.570   1.537   6.494  0.4347 -0.5914 -0.1796
19092THY    HP567765   4.471   1.576   6.519  0.4761  2.3586 -1.6618
19092THY    HP667766   4.606   1.592   6.406  0.7214  0.2560  1.0255
19092THY    HP767767   4.636   1.561   6.578  2.6306 -2.3988  0.5077
19092THY    CA367768   4.339   1.382   6.356 -0.0176 -0.0410  0.3238
19092THY    HA367769   4.320   1.465   6.424 -1.0877 -1.8337  1.6046
19092THY    CA467770   4.256   1.330   6.257  0.2384 -0.2836 -0.1033
19092THY    HA467771   4.160   1.376   6.234 -0.1385  1.0730 -0.1786
19092THY    CA567772   4.299   1.217   6.188 -0.3039  0.4222  0.3302
19092THY    CM167773   4.219   1.165   6.077  0.4845 -0.2609  0.2536
19092THY    HM167774   4.247   1.195   5.975 -1.9723 -1.2692 -0.6388
19092THY    HM267775   4.115   1.200   6.086  0.0115 -0.4830 -1.0392
19092THY    HM367776   4.220   1.055   6.081  1.0426  0.3497  0.2784
19092THY    CA667777   4.421   1.161   6.207  0.4307 -0.0473 -0.0973
19092THY    HA667778   4.462   1.079   6.148  0.6704  0.8994 -0.6739
19093THY      O67779   8.224   4.210   6.819 -0.0047 -0.9030  0.7384
19093THY     HO67780   8.187   4.295   6.790  1.1140  0.4782  1.7398
19093THY    CA167781   8.359   4.224   6.833  0.1880 -0.6100  0.5511
19093THY    CA267782   8.438   4.132   6.904  0.3409 -0.2382 -0.1946
19093THY    CP167783   8.384   4.037   7.007 -0.1033  0.0452 -0.1453
19093THY    HP167784   8.275   4.041   6.995 -0.1312  0.6470  1.2599
19093THY    CP267785   8.413   4.084   7.143 -0.2782 -0.0282  0.2885
19093THY    HP267786   8.367   4.179   7.172  0.2623  0.2076  0.4850
19093THY    HP367787   8.518   4.111   7.161  0.6615  0.1591 -3.0720
19093THY    HP467788   8.403   4.006   7.219  0.0176 -2.5863 -2.4211
19093THY    CP367789   8.430   3.889   6.978 -0.7420  0.6160  0.5894
19093THY    HP567790   8.416   3.857   6.874 -0.5923  0.6935  0.2756
19093THY    HP667791   8.359   3.816   7.019  0.7674 -0.1144 -1.3870
19093THY    HP767792   8.533   3.875   7.012 -0.3569 -0.7143  0.0721
19093THY    CA367793   8.579   4.144   6.905  0.0908 -0.3777  0.0187
19093THY    HA367794   8.639   4.082   6.970 -0.1199 -2.1657 -2.1839
19093THY    CA467795   8.640   4.250   6.836  0.3074 -0.1615  0.3280
19093THY    HA467796   8.747   4.262   6.829  0.2575 -1.6149  0.1178
19093THY    CA567797   8.559   4.340   6.763  1.4567  0.0418  0.1229
19093THY    CM167798   8.622   4.440   6.672 -0.4669 -0.0212  0.0864
19093THY    HM167799   8.553   4.523   6.691  0.7016  0.9141  0.8844
19093THY    HM267800   8.599   4.406   6.571  0.5347  0.8628 -3.5967
19093THY    HM367801   8.731   4.452   6.676 -0.5507 -0.9081  1.3695
19093THY    CA667802   8.417   4.323   6.765  0.1052 -0.0245 -0.2107
19093THY    HA667803   8.358   4.396   6.710  1.9925  0.3420  1.6813
19094THY      O67804   3.913   8.504   7.491 -0.1784  0.0842  0.0300
19094THY     HO67805   3.830   8.505   7.440  0.7490 -1.5687 -1.6112
19094THY    CA167806   3.961   8.378   7.472  0.1513  1.0421 -0.5287
19094THY    CA267807   4.038   8.310   7.565  0.0716  0.9424 -0.3813
19094THY    CP167808   4.046   8.381   7.703  0.3665  0.5464 -0.4161
19094THY    HP167809   4.048   8.490   7.694  1.1974 -1.2777 -0.5620
19094THY    CP267810   4.164   8.343   7.791 -0.9294  0.2268 -0.4072
19094THY    HP267811   4.251   8.341   7.725 -0.5794  0.6932 -0.8494
19094THY    HP367812   4.145   8.238   7.819 -1.1473  0.3437 -0.3387
19094THY    HP467813   4.169   8.416   7.873  0.3883 -1.0603  1.0171
19094THY    CP367814   3.929   8.351   7.795  0.7998  0.1644  0.0045
19094THY    HP567815   3.946   8.246   7.822  1.6496 -3.2721 -0.8867
19094THY    HP667816   3.838   8.358   7.733 -0.2278  1.7482  1.3311
19094THY    HP767817   3.927   8.427   7.873  0.3905  0.4886 -0.3323
19094THY    CA367818   4.098   8.185   7.535  0.9914  0.3197  0.2554
19094THY    HA367819   4.157   8.140   7.615  1.3869 -0.1357 -0.0392
19094THY    CA467820   4.079   8.134   7.406  0.2667  0.2781 -0.0632
19094THY    HA467821   4.134   8.049   7.367  0.8369 -1.7487  1.1690
19094THY    CA567822   3.985   8.190   7.319  0.3739 -0.3100 -1.0620
19094THY    CM167823   3.937   8.123   7.184  0.2445 -0.4633 -0.0375
19094THY    HM167824   3.829   8.112   7.198 -0.1086 -1.9695  1.1775
19094THY    HM267825   3.977   8.021   7.177 -1.4429  3.0427 -1.0996
19094THY    HM367826   3.960   8.178   7.092 -4.2851 -0.1765  2.8060
19094THY    CA667827   3.930   8.309   7.357 -0.7765 -0.4741  0.2167
19094THY    HA667828   3.857   8.347   7.286 -1.3869  0.4044  0.7325
19095THY      O67829   1.598   4.197   2.407 -0.4701 -0.2194  0.7030
19095THY     HO67830   1.564   4.135   2.473 -1.7757 -0.9017  0.6691
19095THY    CA167831   1.716   4.133   2.357  0.3560  0.1251 -0.6965
19095THY    CA267832   1.773   4.160   2.232 -0.3378 -0.1311  0.0633
19095THY    CP167833   1.704   4.259   2.133 -0.1388 -0.2380 -0.4896
19095THY    HP167834   1.599   4.272   2.158  0.2105  2.4940 -2.1357
19095THY    CP267835   1.719   4.232   1.987  0.1768  0.5537 -0.4574
19095THY    HP267836   1.670   4.312   1.930 -1.4249  0.9213 -1.1288
19095THY    HP367837   1.681   4.132   1.960  3.3148  1.1124 -1.9434
19095THY    HP467838   1.821   4.228   1.947  0.3261  0.8270  0.4230
19095THY    CP367839   1.756   4.399   2.176 -0.5356  0.2715  0.4469
19095THY    HP567840   1.749   4.407   2.285  0.8869  0.3643  0.7857
19095THY    HP667841   1.687   4.474   2.136 -1.4721 -0.6844 -0.8785
19095THY    HP767842   1.861   4.419   2.150 -0.4966  0.9207  1.1122
19095THY    CA367843   1.896   4.097   2.196  0.2287  0.4034  0.3545
19095THY    HA367844   1.942   4.098   2.098 -0.0310  0.2770  0.0779
19095THY    CA467845   1.950   4.001   2.288  0.0003 -0.2342 -0.0736
19095THY    HA467846   2.042   3.948   2.266 -1.1421 -2.0998 -1.3832
19095THY    CA567847   1.891   3.973   2.412 -0.6936  0.3676  0.5552
19095THY    CM167848   1.957   3.884   2.515 -0.3581 -0.2354  0.2296
19095THY    HM167849   2.057   3.850   2.484 -0.9800  0.6955 -2.7086
19095THY    HM267850   1.894   3.799   2.545 -2.5362 -1.5299  1.3091
19095THY    HM367851   1.969   3.942   2.607 -1.4569  1.1576 -1.6215
19095THY    CA667852   1.772   4.039   2.450  0.7965  0.4891  0.4829
19095THY    HA667853   1.729   4.025   2.548 -3.1212 -0.6430  2.8943
19096THY      O67854   7.982   4.532   2.567  0.2789  0.5727  0.9571
19096THY     HO67855   7.922   4.579   2.627  1.1062  0.2481  2.4831
19096THY    CA167856   7.917   4.529   2.449  0.7216 -0.0280 -0.6700
19096THY    CA267857   7.941   4.423   2.355 -0.9608 -0.3198 -0.2813
19096THY    CP167858   8.019   4.299   2.407  0.0247 -0.7175 -0.0521
19096THY    HP167859   8.041   4.302   2.514  1.5942 -0.9968 -0.7820
19096THY    CP267860   8.156   4.280   2.337 -0.0741 -0.6331 -0.1652
19096THY    HP267861   8.202   4.379   2.338  0.7129 -0.4184 -0.5265
19096THY    HP367862   8.126   4.260   2.233  2.0648 -0.9950 -1.8708
19096THY    HP467863   8.214   4.200   2.385  0.6645  3.5934  2.6011
19096THY    CP367864   7.934   4.167   2.388 -0.7275 -0.0725 -0.5068
19096THY    HP567865   7.959   4.145   2.283  4.2577  0.7702 -0.1418
19096THY    HP667866   7.827   4.165   2.413 -0.7291  0.1960  1.3416
19096THY    HP767867   7.985   4.086   2.441  1.7940 -0.0706  0.9877
19096THY    CA367868   7.899   4.441   2.221 -1.0259  0.1357  0.1258
19096THY    HA367869   7.913   4.363   2.147  1.5247 -0.1797  0.7716
19096THY    CA467870   7.827   4.556   2.189 -0.5529  0.4778 -0.0501
19096THY    HA467871   7.792   4.570   2.087 -1.9814  0.9909  0.2859
19096THY    CA567872   7.799   4.658   2.277 -1.1230 -0.3973  0.9509
19096THY    CM167873   7.725   4.782   2.230 -0.7082  0.1191  0.1093
19096THY    HM167874   7.796   4.864   2.218  1.6671  3.6181 -1.1998
19096THY    HM267875   7.671   4.812   2.321 -1.7137 -0.3094 -0.3197
19096THY    HM367876   7.651   4.764   2.151 -0.8829  0.3721 -0.3140
19096THY    CA667877   7.855   4.646   2.405  0.5428  0.5901  0.1598
19096THY    HA667878   7.841   4.728   2.475  1.0941 -0.5834  1.2995
19097THY      O67879   5.811   3.351   6.182  0.3603 -0.0293  0.4496
19097THY     HO67880   5.716   3.344   6.161  0.8666 -3.2511  1.7688
19097THY    CA167881   5.850   3.452   6.108 -0.0982 -0.8706 -0.5802
19097THY    CA267882   5.952   3.435   6.016  0.0341  0.6338 -0.6324
19097THY    CP167883   6.014   3.297   5.983 -0.2690  0.4467  0.1280
19097THY    HP167884   6.019   3.242   6.078  0.3213 -0.9943 -2.4555
19097THY    CP267885   6.154   3.292   5.919 -0.5554  0.0923  0.9080
19097THY    HP267886   6.148   3.304   5.810 -0.2712 -0.1512 -0.8837
19097THY    HP367887   6.202   3.196   5.941 -0.3589 -0.9980  0.7495
19097THY    HP467888   6.216   3.371   5.963  0.9352  0.6768 -0.5289
19097THY    CP367889   5.926   3.232   5.881 -0.0098 -0.9102  0.3145
19097THY    HP567890   5.826   3.205   5.916  0.6577  0.2196 -0.7302
19097THY    HP667891   5.967   3.141   5.837  1.4740 -1.6694  1.3078
19097THY    HP767892   5.924   3.303   5.797  2.5697 -0.8173  0.5838
19097THY    CA367893   5.993   3.550   5.941 -0.3716 -0.6302  0.0469
19097THY    HA367894   6.074   3.546   5.869  0.1118 -0.0344 -1.3648
19097THY    CA467895   5.934   3.670   5.967 -0.1886 -0.1051  0.2746
19097THY    HA467896   5.968   3.753   5.906 -0.6329 -1.4287 -0.4668
19097THY    CA567897   5.821   3.677   6.052  0.0424 -0.0396 -0.5973
19097THY    CM167898   5.738   3.805   6.051  0.6644 -0.1534  0.5071
19097THY    HM167899   5.788   3.897   6.084 -0.3417  1.0673  0.6409
19097THY    HM267900   5.644   3.800   6.108  0.8973  0.3724  1.6367
19097THY    HM367901   5.703   3.824   5.949 -3.0639  0.9933  0.5698
19097THY    CA667902   5.774   3.569   6.121  0.2912  0.4851  0.2291
19097THY    HA667903   5.687   3.569   6.187 -0.5437 -0.5670 -1.0936
19098THY      O67904   6.743   2.561   3.777 -0.3464 -0.0739 -0.0696
19098THY     HO67905   6.779   2.623   3.844 -0.0436 -0.5599  0.2922
19098THY    CA167906   6.636   2.614   3.719 -0.2558 -0.2456 -0.0219
19098THY    CA267907   6.579   2.555   3.607  0.1617 -0.1002  0.4313
19098THY    CP167908   6.640   2.427   3.540  0.0293  0.2406  0.6201
19098THY    HP167909   6.702   2.375   3.615  1.1309 -0.8119  0.3715
19098THY    CP267910   6.709   2.447   3.406 -0.2305 -0.2178  0.0234
19098THY    HP267911   6.752   2.351   3.377  1.9858  0.4147  0.7489
19098THY    HP367912   6.790   2.520   3.422  0.4328 -0.3711 -0.6636
19098THY    HP467913   6.643   2.486   3.328  0.9769  0.1697  3.2044
19098THY    CP367914   6.523   2.330   3.505 -0.1182  0.8323 -0.5927
19098THY    HP567915   6.559   2.226   3.508  0.4176  0.1288 -0.4382
19098THY    HP667916   6.472   2.343   3.409  0.9555  0.4565  1.1089
19098THY    HP767917   6.446   2.328   3.583 -2.1137 -1.0390 -2.6825
19098THY    CA367918   6.463   2.619   3.551 -0.4209 -0.3931  0.1805
19098THY    HA367919   6.416   2.571   3.466 -0.1005 -0.4605 -0.0101
19098THY    CA467920   6.409   2.741   3.607  0.4112 -0.1114  0.3736
19098THY    HA467921   6.317   2.783   3.568  1.2653 -1.0993  1.4270
19098THY    CA567922   6.475   2.796   3.720 -0.4672  0.4511  0.1050
19098THY    CM167923   6.424   2.915   3.784  1.0241  0.1644 -0.2286
19098THY    HM167924   6.491   3.000   3.765 -0.1676 -0.5483  0.5647
19098THY    HM267925   6.411   2.895   3.891 -0.9709 -0.0133 -0.0637
19098THY    HM367926   6.324   2.937   3.747  1.2550 -0.2296  0.1687
19098THY    CA667927   6.587   2.736   3.772  0.3763  0.5858 -0.3918
19098THY    HA667928   6.635   2.780   3.859 -0.7060  0.9622  0.0837
19099THY      O67929   1.564   8.259   7.137 -0.0888 -0.9312 -0.3934
19099THY     HO67930   1.519   8.222   7.059 -1.9869  0.8842 -2.1502
19099THY    CA167931   1.538   8.386   7.147  0.7487  0.2369 -0.3069
19099THY    CA267932   1.643   8.473   7.175  0.4363  0.2943 -0.3547
19099THY    CP167933   1.797   8.430   7.181  0.5854 -0.0666 -0.9746
19099THY    HP167934   1.812   8.323   7.162  0.6454  0.3509 -1.0418
19099THY    CP267935   1.850   8.463   7.320 -0.4925  0.7994 -0.1109
19099THY    HP267936   1.776   8.457   7.401  1.4355  2.6300 -0.3743
19099THY    HP367937   1.886   8.567   7.318  0.6780  0.5248 -0.5153
19099THY    HP467938   1.941   8.405   7.337 -1.5969  1.1945 -1.8127
19099THY    CP367939   1.869   8.506   7.073 -0.2541 -0.2256 -0.6352
19099THY    HP567940   1.852   8.614   7.070  0.2768 -1.4898 -0.5614
19099THY    HP667941   1.832   8.461   6.980  2.5425 -1.3872 -0.7289
19099THY    HP767942   1.976   8.480   7.073  0.1368 -1.5257  0.8284
19099THY    CA367943   1.601   8.605   7.198  0.1943 -0.0332 -0.2628
19099THY    HA367944   1.678   8.673   7.232  0.0839  0.8318 -0.5521
19099THY    CA467945   1.472   8.647   7.168  0.0502  0.0914  0.3191
19099THY    HA467946   1.443   8.751   7.181  0.0346 -1.2176  0.4878
19099THY    CA567947   1.376   8.560   7.122 -0.7368 -0.0999  1.1719
19099THY    CM167948   1.237   8.603   7.098 -0.0979  0.5535 -0.8693
19099THY    HM167949   1.174   8.611   7.188  0.0251  0.7014 -1.5314
19099THY    HM267950   1.179   8.536   7.033 -2.4661  0.5406  1.0363
19099THY    HM367951   1.248   8.696   7.042  0.0955 -0.2267 -1.3579
19099THY    CA667952   1.410   8.424   7.124 -0.5661  1.3609 -0.5511
19099THY    HA667953   1.333   8.355   7.091 -1.8521  2.9032  0.0712
19100THY      O67954   9.265   2.925   2.534 -0.3292  0.2461  0.1600
19100THY     HO67955   9.206   2.849   2.543 -1.0519 -0.5153  0.6146
19100THY    CA167956   9.204   3.016   2.616 -0.1345 -0.1165  0.5556
19100THY    CA267957   9.270   3.127   2.660 -0.9683  0.2665 -0.2967
19100THY    CP167958   9.405   3.162   2.603 -0.2202  0.4407 -0.3073
19100THY    HP167959   9.443   3.082   2.538  1.9124  1.9817 -0.6490
19100THY    CP267960   9.512   3.174   2.715  0.2317  0.0175  0.1843
19100THY    HP267961   9.531   3.081   2.769  0.4917 -1.6279 -0.7698
19100THY    HP367962   9.500   3.261   2.781 -1.8742  2.2069 -1.6439
19100THY    HP467963   9.600   3.188   2.652  0.3082  0.3722  1.4949
19100THY    CP367964   9.408   3.284   2.516 -0.2801 -1.2123 -0.8313
19100THY    HP567965   9.337   3.285   2.433  0.0321 -1.5574  2.3589
19100THY    HP667966   9.508   3.293   2.471  0.4718  0.1149 -2.0180
19100THY    HP767967   9.394   3.374   2.577 -0.8352 -3.2837  0.5760
19100THY    CA367968   9.207   3.212   2.758 -0.1502 -0.6359 -0.1475
19100THY    HA367969   9.247   3.306   2.793  1.5644  1.6303 -1.6170
19100THY    CA467970   9.077   3.175   2.793 -0.2235 -0.4202 -0.7290
19100THY    HA467971   9.025   3.248   2.854 -0.0105 -1.7980  0.6246
19100THY    CA567972   9.020   3.062   2.750  0.1367 -0.2519  0.3730
19100THY    CM167973   8.877   3.035   2.792 -0.2725 -0.0362 -0.2425
19100THY    HM167974   8.822   2.968   2.725 -1.4618 -0.2356  0.8736
19100THY    HM267975   8.816   3.126   2.802  1.7325  1.1640  1.0354
19100THY    HM367976   8.863   2.989   2.890  0.2516  0.5966  0.9119
19100THY    CA667977   9.088   2.970   2.671 -0.0503  0.1340  0.0942
19100THY    HA667978   9.048   2.872   2.648  2.4299  1.7653 -1.4319
19101THY      O67979   0.320   6.591   5.650 -0.2270  0.0321 -0.2694
19101THY     HO67980   0.330   6.507   5.699 -0.3646 -1.7520 -1.3715
19101THY    CA167981   0.317   6.703   5.733 -0.0417 -0.6944  0.0848
19101THY    CA267982   0.305   6.837   5.696  0.3031  0.1070  0.2105
19101THY    CP167983   0.291   6.879   5.548  0.2182 -0.1460 -0.2296
19101THY    HP167984   0.301   6.795   5.479 -0.7520 -0.4802 -0.0829
19101THY    CP267985   0.406   6.975   5.500  1.0213  0.7343  0.1690
19101THY    HP267986   0.390   7.011   5.398  0.9328  0.9016  0.6147
19101THY    HP367987   0.502   6.925   5.517  1.6758  2.8216  1.9484
19101THY    HP467988   0.412   7.059   5.570  1.1345  1.6110 -0.5508
19101THY    CP367989   0.153   6.942   5.528 -0.3186  0.1248  0.3577
19101THY    HP567990   0.152   7.049   5.552  0.4738  1.1848  0.1362
19101THY    HP667991   0.081   6.891   5.591  0.7079  0.8662 -0.2019
19101THY    HP767992   0.127   6.922   5.423  0.1409  0.0183  0.3017
19101THY    CA367993   0.337   6.932   5.794  0.2326  0.1062  0.0275
19101THY    HA367994   0.336   7.039   5.775 -1.2017 -0.8335 -0.1202
19101THY    CA467995   0.362   6.896   5.926 -0.7172 -0.4650 -0.3111
19101THY    HA467996   0.374   6.967   6.007  1.2672  1.0513 -2.2123
19101THY    CA567997   0.348   6.758   5.965 -0.5844  0.2899 -1.0516
19101THY    CM167998   0.343   6.728   6.109 -0.2853 -0.2987 -0.5009
19101THY    HM167999   0.368   6.624   6.134 -0.3152 -0.2875 -0.5055
19101THY    HM268000   0.250   6.754   6.162  0.1013  0.2110 -0.1304
19101THY    HM368001   0.422   6.780   6.166 -1.3833 -0.7745  1.8383
19101THY    CA668002   0.333   6.659   5.869  0.6694  0.5923  0.1927
19101THY    HA668003   0.339   6.553   5.894  0.0305  0.4732  0.1262
19102THY      O68004   3.649   8.563   7.352  0.0801  0.2148  0.3365
19102THY     HO68005   3.644   8.643   7.297  1.5525 -1.7210 -0.8140
19102THY    CA168006   3.625   8.456   7.273 -0.4539 -1.0882  0.2471
19102THY    CA268007   3.553   8.347   7.322  0.0004 -0.6179 -0.9978
19102THY    CP168008   3.494   8.345   7.462 -0.3351 -0.1814 -0.3223
19102THY    HP168009   3.502   8.440   7.515  1.0547 -1.6196  0.4107
19102THY    CP268010   3.580   8.257   7.553 -0.3585 -0.3300 -0.8632
19102THY    HP268011   3.553   8.282   7.656  1.3694 -0.3885  1.5936
19102THY    HP368012   3.679   8.303   7.556 -0.7281 -0.4085 -0.0490
19102THY    HP468013   3.574   8.149   7.531 -0.7764  2.5502 -1.5045
19102THY    CP368014   3.342   8.306   7.459 -0.7599  0.0205 -0.2136
19102THY    HP568015   3.294   8.382   7.396  1.0231 -1.1993 -0.0181
19102THY    HP668016   3.306   8.317   7.561 -0.8459 -0.1635  1.4602
19102THY    HP768017   3.317   8.205   7.425 -0.3015  1.3580 -0.7956
19102THY    CA368018   3.522   8.249   7.232  0.0146 -0.6474 -0.1038
19102THY    HA368019   3.453   8.171   7.264  0.5652 -0.2167 -0.4270
19102THY    CA468020   3.569   8.245   7.105  0.3883 -0.4814  0.1305
19102THY    HA468021   3.530   8.172   7.035 -0.7860 -0.6903  0.9271
19102THY    CA568022   3.653   8.348   7.060 -0.6150  0.2011 -0.3980
19102THY    CM168023   3.707   8.338   6.916  0.1243 -1.2906 -0.3371
19102THY    HM168024   3.769   8.418   6.875  2.0809 -1.4511 -1.8607
19102THY    HM268025   3.616   8.332   6.857 -0.8187 -0.0362  0.8660
19102THY    HM368026   3.763   8.244   6.915 -0.7634  4.2557 -1.2862
19102THY    CA668027   3.687   8.457   7.146  0.7688  0.0276 -0.2822
19102THY    HA668028   3.738   8.546   7.110  0.3769 -0.0683 -0.0943
19103THY      O68029   6.962   8.289   7.366 -0.8009  0.0802  0.4200
19103THY     HO68030   6.966   8.376   7.409  1.9059 -0.6134  0.7515
19103THY    CA168031   7.073   8.291   7.284 -0.5505 -0.7780 -0.1889
19103THY    CA268032   7.129   8.170   7.239 -0.2590  0.5087  0.3438
19103THY    CP168033   7.070   8.032   7.280 -0.3222 -0.6671 -0.2744
19103THY    HP168034   7.019   8.049   7.376  0.7088 -0.5849  3.2636
19103THY    CP268035   7.179   7.934   7.301  0.0502  0.1262 -0.2430
19103THY    HP268036   7.220   7.903   7.204 -1.3255  0.0714 -2.0374
19103THY    HP368037   7.126   7.852   7.350 -0.3948  1.0020  0.5562
19103THY    HP468038   7.260   7.985   7.354 -0.4965 -0.3969  1.2228
19103THY    CP368039   6.967   7.980   7.185 -0.1378 -0.3066  0.2906
19103THY    HP568040   6.920   7.887   7.222 -0.8464  1.3261  1.2479
19103THY    HP668041   7.016   7.960   7.089 -1.0764 -0.9663  1.0697
19103THY    HP768042   6.888   8.055   7.181 -0.4844  1.5656  0.0853
19103THY    CA368043   7.241   8.178   7.159  0.7630 -0.7638  0.7211
19103THY    HA368044   7.301   8.091   7.134  1.6697 -2.2349  1.7115
19103THY    CA468045   7.302   8.297   7.133  0.0252  0.4372  0.3313
19103THY    HA468046   7.394   8.296   7.075  0.3785  0.9727  0.9612
19103THY    CA568047   7.246   8.414   7.176  0.0298  0.3212  0.1815
19103THY    CM168048   7.318   8.544   7.148  0.6545 -0.0030  0.4890
19103THY    HM168049   7.348   8.558   7.043 -0.6411 -0.5157 -0.4168
19103THY    HM268050   7.409   8.544   7.210 -0.0557  1.0663 -0.5591
19103THY    HM368051   7.256   8.630   7.173 -0.7203  1.4765 -0.8698
19103THY    CA668052   7.123   8.417   7.246  0.3662 -0.4001 -0.2077
19103THY    HA668053   7.084   8.511   7.283  5.4308 -0.9153  2.4246
19104THY      O68054   4.989   2.606   3.890  0.0538  0.1276  0.4974
19104THY     HO68055   4.927   2.538   3.921 -3.2687  0.0961  3.2332
19104THY    CA168056   5.109   2.560   3.915  0.1713 -0.1335  0.2412
19104THY    CA268057   5.214   2.643   3.942  0.5341 -0.2940 -0.0207
19104THY    CP168058   5.186   2.788   3.936 -0.3436 -0.1303  0.2495
19104THY    HP168059   5.121   2.821   3.854 -1.9165  1.4545  1.2769
19104THY    CP268060   5.312   2.869   3.896  0.2204  0.5320  0.3954
19104THY    HP268061   5.290   2.975   3.879 -1.9777  1.6057  0.1805
19104THY    HP368062   5.353   2.839   3.800  1.0253  1.6762 -2.5074
19104THY    HP468063   5.391   2.867   3.971  3.3800 -2.5426  1.1949
19104THY    CP368064   5.136   2.842   4.070  0.6419 -0.3799  0.0057
19104THY    HP568065   5.043   2.792   4.100  0.0217 -1.2128  0.6261
19104THY    HP668066   5.123   2.951   4.071  1.7630 -0.8273  0.1641
19104THY    HP768067   5.215   2.825   4.144 -0.7021  1.0000 -0.3419
19104THY    CA368068   5.338   2.593   3.973  0.1898 -0.1271  0.0651
19104THY    HA368069   5.418   2.655   4.011 -1.4848 -0.0373  2.2602
19104THY    CA468070   5.353   2.453   3.980 -0.0559 -0.6769  0.2289
19104THY    HA468071   5.442   2.415   4.030 -0.4513 -0.5657 -0.5713
19104THY    CA568072   5.241   2.370   3.950  0.5488 -0.2372 -0.4981
19104THY    CM168073   5.256   2.219   3.962 -0.2516  0.0744 -0.2265
19104THY    HM168074   5.183   2.181   4.035  1.5035  1.6776 -0.6923
19104THY    HM268075   5.355   2.190   3.998 -0.3570  1.4701  1.0020
19104THY    HM368076   5.246   2.184   3.859  1.4178 -0.5165  0.9110
19104THY    CA668077   5.125   2.420   3.908 -0.8406  0.0284 -0.1441
19104THY    HA668078   5.043   2.353   3.883 -0.0589  0.7446 -1.4049
19105THY      O68079   6.396   1.710   4.697  0.1800  0.7882  0.2579
19105THY     HO68080   6.468   1.773   4.683  0.9248  1.4526 -0.4238
19105THY    CA168081   6.462   1.598   4.729 -0.3015 -0.4399  0.3943
19105THY    CA268082   6.411   1.473   4.698  0.8542  0.8375  0.5209
19105THY    CP168083   6.259   1.455   4.643 -0.1735 -0.5889 -0.0160
19105THY    HP168084   6.204   1.548   4.623 -0.4363 -0.9441 -0.2464
19105THY    CP268085   6.165   1.376   4.732 -0.5715 -0.6093 -0.6186
19105THY    HP268086   6.149   1.429   4.827  0.4965 -0.8498  0.1700
19105THY    HP368087   6.203   1.275   4.755 -0.0866 -0.6608 -0.4492
19105THY    HP468088   6.070   1.373   4.678 -1.0280  0.1276  0.3815
19105THY    CP368089   6.252   1.395   4.503  0.4866 -0.1695  0.0290
19105THY    HP568090   6.289   1.292   4.497  1.8298 -3.1421  0.5629
19105THY    HP668091   6.301   1.470   4.439 -1.4478  0.8132  2.2763
19105THY    HP768092   6.145   1.400   4.476  0.3562  0.5167  1.4166
19105THY    CA368093   6.481   1.358   4.730  0.0031 -0.2215  0.0830
19105THY    HA368094   6.442   1.258   4.714  1.4032  2.1700 -0.9179
19105THY    CA468095   6.600   1.367   4.800  0.4428  0.0712  0.0313
19105THY    HA468096   6.660   1.280   4.824  1.3616 -0.0557  0.6089
19105THY    CA568097   6.653   1.498   4.823  0.1040 -0.1075  0.3567
19105THY    CM168098   6.794   1.520   4.875 -0.2733 -0.5191 -0.2023
19105THY    HM168099   6.869   1.444   4.850  1.5783 -2.1582  1.9994
19105THY    HM268100   6.788   1.527   4.985 -0.1533 -0.5880  1.2947
19105THY    HM368101   6.840   1.615   4.844  0.4949  1.0207 -0.0348
19105THY    CA668102   6.587   1.615   4.781 -0.3016 -0.5477 -0.1185
19105THY    HA668103   6.628   1.712   4.807  0.6389 -0.0387 -0.6411
19106THY      O68104   8.206   6.210   5.860  0.0839  0.4122 -0.2138
19106THY     HO68105   8.249   6.241   5.942 -2.8411  1.1693  2.3740
19106THY    CA168106   8.244   6.302   5.765 -0.0472 -0.4735 -1.0673
19106THY    CA268107   8.272   6.277   5.631 -1.0739 -0.4135  0.0997
19106THY    CP168108   8.256   6.134   5.579  0.0912  0.9103  0.0537
19106THY    HP168109   8.221   6.069   5.660  1.8932  0.3245 -1.7481
19106THY    CP268110   8.387   6.064   5.540 -0.0551 -0.6393  0.0527
19106THY    HP268111   8.364   5.965   5.497 -0.8453 -0.8682  0.3341
19106THY    HP368112   8.435   6.045   5.637 -2.3786  0.2257 -2.0076
19106THY    HP468113   8.445   6.134   5.479  0.4447  2.8362  2.9508
19106THY    CP368114   8.140   6.128   5.475 -0.9756  0.3685 -0.2109
19106THY    HP568115   8.121   6.023   5.452  0.9847  0.3683 -0.5986
19106THY    HP668116   8.163   6.168   5.375 -3.6738 -0.7288 -1.1640
19106THY    HP768117   8.058   6.192   5.509 -1.2782 -1.2058  0.2878
19106THY    CA368118   8.310   6.385   5.543 -0.1559 -0.0882 -0.3586
19106THY    HA368119   8.315   6.366   5.436  1.0549 -0.0690 -0.2296
19106THY    CA468120   8.317   6.512   5.592 -0.2699  0.8441  0.3687
19106THY    HA468121   8.342   6.591   5.522 -1.2610 -0.0473 -0.0746
19106THY    CA568122   8.301   6.538   5.723  0.5541 -0.7794  0.0396
19106THY    CM168123   8.314   6.682   5.773 -0.0809  0.1988 -0.3824
19106THY    HM168124   8.213   6.706   5.809 -0.2695  0.3509 -1.3550
19106THY    HM268125   8.338   6.751   5.692 -1.2348  1.3083  1.4110
19106THY    HM368126   8.384   6.696   5.856 -1.9914  1.6561  1.0495
19106THY    CA668127   8.258   6.438   5.809 -0.5641 -0.1360  0.1678
19106THY    HA668128   8.237   6.457   5.914 -2.6194  0.0469 -2.4637
19107THY      O68129   8.294   6.580   2.746  0.2376  0.3170 -0.3703
19107THY     HO68130   8.240   6.541   2.675 -0.6479  1.8883 -2.1936
19107THY    CA168131   8.310   6.714   2.737 -0.3533 -0.5402  0.1501
19107THY    CA268132   8.379   6.796   2.829  0.3923 -0.4480  0.1692
19107THY    CP168133   8.452   6.720   2.939  0.3021 -0.4852 -0.5346
19107THY    HP168134   8.383   6.638   2.963 -2.0058 -1.5365  0.9879
19107THY    CP268135   8.472   6.808   3.068  0.6411  0.0722 -0.1362
19107THY    HP268136   8.379   6.863   3.089 -0.9540 -0.0051 -2.6488
19107THY    HP368137   8.554   6.880   3.065  0.8796 -0.2789 -0.4199
19107THY    HP468138   8.497   6.754   3.161 -0.0947  1.3334  1.6012
19107THY    CP368139   8.588   6.670   2.895  0.2253  0.3408 -0.6360
19107THY    HP568140   8.613   6.587   2.962  4.2272 -0.2240 -0.1120
19107THY    HP668141   8.653   6.757   2.902  0.1176  0.6057 -0.5755
19107THY    HP768142   8.594   6.637   2.790  0.6893  0.4145 -0.7969
19107THY    CA368143   8.369   6.932   2.819  0.0008 -0.4122 -0.0770
19107THY    HA368144   8.427   6.998   2.883 -0.2645  1.1942 -1.3333
19107THY    CA468145   8.293   6.991   2.713  0.1959 -0.4236  0.5296
19107THY    HA468146   8.287   7.100   2.711  2.2306 -2.4344  0.6867
19107THY    CA568147   8.238   6.909   2.612 -0.1650  0.4464 -0.0278
19107THY    CM168148   8.165   6.968   2.498  0.6536  1.0766 -0.2277
19107THY    HM168149   8.244   6.983   2.423  0.7699  1.3478  0.6036
19107THY    HM268150   8.131   7.068   2.530  0.1161 -0.4978  0.1144
19107THY    HM368151   8.085   6.906   2.458 -0.3140  0.8423  1.1176
19107THY    CA668152   8.240   6.774   2.631 -0.2962  0.2319  0.6414
19107THY    HA668153   8.192   6.702   2.565 -0.8413  1.4686 -0.1698
19108THY      O68154   3.052   2.432   2.583  0.3649  0.2083 -0.4651
19108THY     HO68155   3.047   2.404   2.676 -1.5209  1.0817  2.3481
19108THY    CA168156   3.185   2.432   2.557 -0.0895 -1.0479  0.1052
19108THY    CA268157   3.245   2.509   2.453  0.7512  0.1656 -0.2083
19108THY    CP168158   3.158   2.588   2.353 -0.1261  0.7707 -0.2887
19108THY    HP168159   3.056   2.603   2.391 -0.7005 -1.1207  0.9179
19108THY    CP268160   3.144   2.522   2.212 -0.0124 -0.6867 -0.6227
19108THY    HP268161   3.074   2.439   2.221  0.7978 -1.2305 -1.3796
19108THY    HP368162   3.235   2.482   2.166  0.5391 -0.7793  0.6864
19108THY    HP468163   3.090   2.590   2.144 -1.1981  0.8957  0.0763
19108THY    CP368164   3.214   2.733   2.332  0.1110  0.6256  0.3872
19108THY    HP568165   3.223   2.766   2.436 -0.4989  0.8741 -0.2159
19108THY    HP668166   3.147   2.791   2.266 -0.3457 -0.5800 -1.4249
19108THY    HP768167   3.318   2.735   2.297 -0.5528 -1.4876  0.4911
19108THY    CA368168   3.389   2.516   2.446 -0.2768  0.1902  0.0188
19108THY    HA368169   3.445   2.569   2.369  0.9144 -0.5922 -2.2587
19108THY    CA468170   3.461   2.442   2.542 -0.2436 -0.3800 -0.1736
19108THY    HA468171   3.569   2.450   2.540 -0.1738 -0.4894 -1.0659
19108THY    CA568172   3.403   2.364   2.645 -0.0912  0.1336  0.0695
19108THY    CM168173   3.481   2.272   2.734 -0.0919  0.5046  0.3364
19108THY    HM168174   3.443   2.169   2.727  0.8797 -0.5450  0.0356
19108THY    HM268175   3.483   2.299   2.841  1.0939  0.9648 -1.4261
19108THY    HM368176   3.589   2.270   2.713 -0.2353 -0.2178 -0.1501
19108THY    CA668177   3.263   2.366   2.653  0.5906  0.3174  0.2868
19108THY    HA668178   3.220   2.304   2.732  0.5982  0.3071  0.2684
19109THY      O68179   3.078   6.589   5.677 -0.0086  0.5243 -0.6132
19109THY     HO68180   3.000   6.536   5.653  0.3451  0.2796 -1.0244
19109THY    CA168181   3.055   6.635   5.803  0.1799 -0.1689  0.4078
19109THY    CA268182   3.164   6.669   5.893 -0.6215  0.2141 -0.7140
19109THY    CP168183   3.301   6.646   5.840  0.3918 -0.8048  0.3112
19109THY    HP168184   3.301   6.569   5.762 -0.3455  1.0805 -1.7061
19109THY    CP268185   3.394   6.572   5.951 -0.1533 -0.6261 -0.1904
19109THY    HP268186   3.343   6.478   5.976 -0.6125 -2.0137 -0.3342
19109THY    HP368187   3.409   6.640   6.036  1.5901 -0.2155 -1.0655
19109THY    HP468188   3.491   6.550   5.906  0.8964  0.6055  1.6649
19109THY    CP368189   3.359   6.783   5.806  0.3707  0.2599  0.4792
19109THY    HP568190   3.332   6.856   5.884 -0.3521  1.2144 -0.7526
19109THY    HP668191   3.308   6.818   5.716  0.9365 -0.4085 -0.4040
19109THY    HP768192   3.465   6.773   5.781  0.0769 -0.7188 -0.2824
19109THY    CA368193   3.135   6.735   6.011 -0.4116 -0.1388  0.2783
19109THY    HA368194   3.206   6.747   6.093 -1.8638  1.0264  1.3626
19109THY    CA468195   3.007   6.768   6.050  0.2924 -0.4815 -0.2401
19109THY    HA468196   2.988   6.820   6.143 -1.5013 -1.0010  0.0903
19109THY    CA568197   2.901   6.731   5.961 -0.3644 -0.1232  0.0965
19109THY    CM168198   2.763   6.745   6.011  0.2700 -0.5256 -0.9994
19109THY    HM168199   2.738   6.646   6.053  2.2037 -0.1161 -1.3682
19109THY    HM268200   2.691   6.772   5.934  0.3614 -0.0843  0.6208
19109THY    HM368201   2.742   6.821   6.087 -0.8623 -0.1030 -1.7070
19109THY    CA668202   2.922   6.669   5.840 -0.2250 -0.0168  0.0589
19109THY    HA668203   2.838   6.650   5.775 -1.8665  2.3316 -1.3785
19110THY      O68204   1.687   0.391   6.474  0.6426  0.1024  0.3365
19110THY     HO68205   1.767   0.424   6.429  1.6242  1.2213 -0.4292
19110THY    CA168206   1.662   0.480   6.572 -0.4450 -0.4546  0.8780
19110THY    CA268207   1.576   0.446   6.678  0.0722  0.4667 -0.0797
19110THY    CP168208   1.486   0.324   6.679  0.7235  0.6386 -0.6964
19110THY    HP168209   1.514   0.257   6.597  0.9901 -1.4145  1.7636
19110THY    CP268210   1.336   0.372   6.658 -0.4701 -0.3100 -0.4398
19110THY    HP268211   1.309   0.463   6.712 -2.3805 -1.6685 -0.1314
19110THY    HP368212   1.270   0.291   6.688 -0.6623  0.2346 -0.0857
19110THY    HP468213   1.319   0.392   6.551 -1.7846 -0.1757 -0.7259
19110THY    CP368214   1.508   0.251   6.814 -0.8427 -0.4556 -0.2232
19110THY    HP568215   1.603   0.197   6.821 -0.4987  1.6410  0.5327
19110THY    HP668216   1.426   0.178   6.825 -1.0562  1.0745  0.2105
19110THY    HP768217   1.512   0.314   6.904 -0.6651 -0.1354 -0.6832
19110THY    CA368218   1.559   0.532   6.783 -0.1727  0.4000 -0.1427
19110THY    HA368219   1.490   0.517   6.866  0.4524  0.4172 -3.6682
19110THY    CA468220   1.655   0.638   6.789  0.3505 -0.5204 -0.7576
19110THY    HA468221   1.655   0.701   6.877 -4.5000  0.9781 -2.3382
19110THY    CA568222   1.748   0.665   6.683 -0.0745 -0.2280  0.0579
19110THY    CM168223   1.853   0.779   6.699 -0.2018  0.1263  0.6394
19110THY    HM168224   1.848   0.814   6.803 -2.6543 -0.6292  2.8801
19110THY    HM268225   1.812   0.861   6.639  0.8541  0.4210  1.4044
19110THY    HM368226   1.948   0.743   6.659 -0.3061 -1.3808  1.9474
19110THY    CA668227   1.747   0.588   6.568  0.6557  0.3021 -0.0953
19110THY    HA668228   1.815   0.607   6.486 -0.7452 -0.4111  2.1189
19111THY      O68229   7.331   5.121   2.201 -0.5171 -0.5332 -0.3879
19111THY     HO68230   7.358   5.164   2.284  1.3882 -1.7696  0.9640
19111THY    CA168231   7.400   5.203   2.109 -0.0264  0.6851  0.2122
19111THY    CA268232   7.457   5.154   1.982  0.0893 -0.1959 -0.9445
19111THY    CP168233   7.423   5.008   1.933  1.3875  0.2666  0.8030
19111THY    HP168234   7.349   4.964   2.001 -1.9707 -1.3701  3.5166
19111THY    CP268235   7.543   4.917   1.942  0.2211  0.5417 -0.6452
19111THY    HP268236   7.612   4.949   1.863 -2.4326 -2.0063 -0.8478
19111THY    HP368237   7.514   4.814   1.919 -2.2848 -1.7926  0.4632
19111THY    HP468238   7.584   4.926   2.043  0.1565  0.4427  1.1802
19111THY    CP368239   7.378   5.009   1.792 -0.1472  0.3572 -0.2711
19111THY    HP568240   7.336   4.908   1.777 -1.0623 -0.7942  0.2629
19111THY    HP668241   7.462   5.038   1.728 -0.1660  0.1883 -0.5832
19111THY    HP768242   7.290   5.073   1.778 -2.2801 -0.1403 -3.0969
19111THY    CA368243   7.533   5.250   1.910 -1.3384  0.6164 -0.4930
19111THY    HA368244   7.590   5.218   1.823 -2.9447 -0.5767 -0.2350
19111THY    CA468245   7.555   5.383   1.957  0.2650  0.1863  0.0687
19111THY    HA468246   7.615   5.457   1.905  0.7667  0.2265 -0.3007
19111THY    CA568247   7.510   5.421   2.082 -0.1066 -0.7592 -0.1662
19111THY    CM168248   7.562   5.553   2.138  0.3498 -0.0522 -0.1743
19111THY    HM168249   7.530   5.639   2.079  0.1002 -2.0404 -1.5821
19111THY    HM268250   7.671   5.561   2.125  0.3437  0.5531  1.0557
19111THY    HM368251   7.546   5.555   2.247 -1.0195 -0.2505  1.0184
19111THY    CA668252   7.432   5.327   2.154  0.3807 -0.5673 -0.1512
19111THY    HA668253   7.402   5.352   2.255  0.6844 -0.0586 -1.6964
19112THY      O68254   8.169   0.592   4.191  0.3325  0.7133  0.1941
19112THY     HO68255   8.091   0.650   4.187 -0.1271 -0.9288 -0.4968
19112THY    CA168256   8.274   0.663   4.147 -0.4144 -0.4273 -1.2085
19112THY    CA268257   8.411   0.618   4.159  0.5312  0.7864  0.1140
19112THY    CP168258   8.432   0.480   4.225 -0.1344  0.1961 -0.1123
19112THY    HP168259   8.354   0.441   4.291 -0.6295 -0.1514  0.2866
19112THY    CP268260   8.546   0.488   4.328 -0.2170 -0.2103 -0.2501
19112THY    HP268261   8.569   0.397   4.385 -0.3203 -0.1632 -0.2458
19112THY    HP368262   8.544   0.574   4.396 -2.7565 -0.8118  0.2392
19112THY    HP468263   8.639   0.501   4.270 -0.5301 -1.1197 -1.8058
19112THY    CP368264   8.461   0.361   4.125 -0.4203 -0.6997  0.2477
19112THY    HP568265   8.384   0.331   4.053 -2.2369  0.3010  2.2491
19112THY    HP668266   8.491   0.280   4.193 -1.8180  1.7883  1.6993
19112THY    HP768267   8.548   0.391   4.066  0.3718 -0.2157 -1.0377
19112THY    CA368268   8.517   0.702   4.100 -0.2545  0.5591  0.1369
19112THY    HA368269   8.614   0.655   4.093 -0.5980  0.5625 -0.5937
19112THY    CA468270   8.485   0.824   4.045 -0.2715 -0.2396  0.4329
19112THY    HA468271   8.566   0.879   3.997  1.7955  1.6440 -0.7701
19112THY    CA568272   8.350   0.863   4.042 -0.8111 -0.1566 -0.0592
19112THY    CM168273   8.324   1.005   3.998  0.3681 -0.2372 -0.4349
19112THY    HM168274   8.367   1.085   4.060 -0.4251 -0.1051 -0.1034
19112THY    HM268275   8.216   1.020   3.988  0.3115  0.9814  0.0440
19112THY    HM368276   8.363   1.015   3.896  0.9969  0.1966  2.5931
19112THY    CA668277   8.248   0.790   4.101 -0.4838  0.4143 -0.2762
19112THY    HA668278   8.151   0.837   4.111  0.4628  1.6395  1.5557
19113THY      O68279   3.589   3.524   3.625 -0.3138 -0.7407 -0.1158
19113THY     HO68280   3.671   3.503   3.578  2.0565  2.6353  0.7217
19113THY    CA168281   3.494   3.437   3.580  0.1954  0.0321  0.1634
19113THY    CA268282   3.371   3.443   3.641 -0.7917  0.6174  0.5896
19113THY    CP168283   3.347   3.538   3.763 -0.4682  0.5028 -0.3052
19113THY    HP168284   3.409   3.628   3.748 -1.0027 -0.3339 -0.0672
19113THY    CP268285   3.392   3.461   3.888  0.0089  0.2662 -0.1747
19113THY    HP268286   3.495   3.424   3.877 -0.4962 -1.6446 -1.1176
19113THY    HP368287   3.332   3.373   3.912 -1.8092  1.7723  1.3836
19113THY    HP468288   3.388   3.529   3.974  1.1113 -0.0808  0.3537
19113THY    CP368289   3.200   3.575   3.774  0.0248  0.0947  0.1314
19113THY    HP568290   3.151   3.487   3.817  0.9125  1.7061  0.4044
19113THY    HP668291   3.151   3.597   3.678 -1.7158  0.8343 -0.3382
19113THY    HP768292   3.177   3.661   3.838  0.1446  1.8441 -1.1047
19113THY    CA368293   3.273   3.359   3.605  0.1885  0.2457  0.6369
19113THY    HA368294   3.176   3.354   3.654  0.3016  0.6561  2.0937
19113THY    CA468295   3.296   3.267   3.504 -0.5236  0.4208 -0.7835
19113THY    HA468296   3.222   3.194   3.475  2.1737 -3.0551 -2.4322
19113THY    CA568297   3.411   3.264   3.434 -0.1905 -0.1260 -0.2063
19113THY    CM168298   3.427   3.155   3.325  0.0847 -0.4892 -0.4743
19113THY    HM168299   3.486   3.072   3.367  1.0007 -1.6688 -0.4363
19113THY    HM268300   3.459   3.196   3.229 -3.1833  0.3973  5.2454
19113THY    HM368301   3.333   3.104   3.300  0.4941  1.3272 -2.2278
19113THY    CA668302   3.522   3.340   3.480  0.4471  0.1449 -0.5041
19113THY    HA668303   3.623   3.327   3.443  1.3372  1.3110  2.2890
19114THY      O68304   9.521   8.434   5.771 -0.5344 -0.1553  0.0475
19114THY     HO68305   9.539   8.530   5.764  0.7284  1.9887  0.0072
19114THY    CA168306   9.399   8.416   5.816  0.1064  0.3179 -0.9862
19114THY    CA268307   9.329   8.304   5.782 -0.0714 -0.0817  0.0254
19114THY    CP168308   9.393   8.186   5.704 -0.2135 -0.5160 -0.5532
19114THY    HP168309   9.480   8.228   5.653 -0.3639 -0.0109  0.4079
19114THY    CP268310   9.291   8.121   5.601 -0.3777 -0.1004 -0.4345
19114THY    HP268311   9.341   8.053   5.531 -1.6365  1.4347 -3.1032
19114THY    HP368312   9.230   8.196   5.550 -1.9000 -0.8301 -2.1001
19114THY    HP468313   9.221   8.059   5.659 -2.6373  0.2741  2.2801
19114THY    CP368314   9.421   8.088   5.812 -0.0803 -0.6535  0.1793
19114THY    HP568315   9.468   7.994   5.782 -2.3955  0.2095 -1.3490
19114THY    HP668316   9.325   8.064   5.859  1.0267  1.7905  0.1496
19114THY    HP768317   9.501   8.132   5.873  1.3846 -1.1466 -1.6825
19114THY    CA368318   9.194   8.295   5.832  0.7605 -0.2157  0.1498
19114THY    HA368319   9.132   8.208   5.816  0.1670  0.5446  0.4242
19114THY    CA468320   9.134   8.399   5.901 -0.0683 -0.2747  0.2517
19114THY    HA468321   9.033   8.384   5.939 -0.1528  0.5166  2.4240
19114THY    CA568322   9.203   8.517   5.932  0.2274  0.0387  0.0449
19114THY    CM168323   9.144   8.635   6.005  0.4134  0.0692  0.2343
19114THY    HM168324   9.061   8.678   5.947 -1.7993  2.6716 -0.2426
19114THY    HM268325   9.220   8.711   6.026 -2.9097 -0.3512  4.0439
19114THY    HM368326   9.112   8.596   6.103 -0.5193  0.5632  2.1173
19114THY    CA668327   9.336   8.522   5.884  0.2367 -0.6182  0.0862
19114THY    HA668328   9.395   8.610   5.909  1.3027  1.5940 -1.1663
19115THY      O68329   1.200   2.247   7.615  0.5755  0.1657  0.0476
19115THY     HO68330   1.264   2.303   7.662  1.0891 -0.3954 -0.0521
19115THY    CA168331   1.159   2.173   7.720 -0.1521  1.0132 -1.6833
19115THY    CA268332   1.077   2.060   7.713  0.4781  0.0684  0.7866
19115THY    CP168333   1.013   2.016   7.581 -0.3680  0.2941  0.0996
19115THY    HP168334   1.048   2.075   7.495  0.6710  0.1074 -0.7673
19115THY    CP268335   0.860   2.032   7.590  0.4143 -0.1801 -0.3739
19115THY    HP268336   0.813   1.995   7.682 -1.2096 -0.9930 -0.3812
19115THY    HP368337   0.817   1.963   7.517 -0.7797  1.8011 -1.8483
19115THY    HP468338   0.823   2.134   7.581  1.1585  0.0637 -0.0695
19115THY    CP368339   1.056   1.869   7.545 -0.6986 -0.0321  0.0258
19115THY    HP568340   1.024   1.846   7.443  0.1574 -0.1093 -0.8992
19115THY    HP668341   0.999   1.793   7.600 -0.2543 -0.9912 -1.0342
19115THY    HP768342   1.163   1.846   7.554 -1.0803  1.6698 -1.2779
19115THY    CA368343   1.053   1.978   7.828  0.4349 -0.9102 -0.6565
19115THY    HA368344   0.985   1.893   7.823  0.8478 -1.2619 -0.9698
19115THY    CA468345   1.112   2.018   7.951 -0.8466  0.1796  0.0491
19115THY    HA468346   1.091   1.961   8.040  0.6676 -0.6147 -1.8701
19115THY    CA568347   1.195   2.125   7.957  0.2609 -0.1874  0.0057
19115THY    CM168348   1.245   2.178   8.088 -0.1724 -0.5060  0.0334
19115THY    HM168349   1.248   2.103   8.167  0.1821  1.0742  1.6342
19115THY    HM268350   1.186   2.261   8.128 -1.7354  1.8166 -2.0470
19115THY    HM368351   1.347   2.217   8.079  0.2253  1.6017 -0.3996
19115THY    CA668352   1.217   2.207   7.845  0.7274  0.1096 -0.1839
19115THY    HA668353   1.284   2.292   7.857  1.5456 -0.3999 -0.7303
19116THY      O68354   2.702   3.430   7.233 -0.4319  0.1583 -0.4995
19116THY     HO68355   2.750   3.381   7.302  0.7875  2.0840  3.0441
19116THY    CA168356   2.757   3.552   7.221  0.6461  0.6338 -0.2505
19116THY    CA268357   2.715   3.634   7.110 -0.0602 -0.3863 -0.2193
19116THY    CP168358   2.630   3.579   6.992 -0.8723  0.3283 -0.7252
19116THY    HP168359   2.628   3.470   6.991 -1.3310 -0.4603 -0.7109
19116THY    CP268360   2.701   3.608   6.864  0.1630  0.2226  0.3217
19116THY    HP268361   2.645   3.579   6.775  0.3550  0.3908 -0.5864
19116THY    HP368362   2.800   3.561   6.860 -0.8805  0.7064 -2.0531
19116THY    HP468363   2.723   3.715   6.856 -0.2356 -3.4648  0.2579
19116THY    CP368364   2.498   3.647   6.986 -0.3203 -0.0805  0.2424
19116THY    HP568365   2.497   3.755   6.969 -1.5185 -1.7112  0.0199
19116THY    HP668366   2.442   3.617   7.075 -1.2725 -1.1751 -1.4352
19116THY    HP768367   2.446   3.603   6.900 -1.8339 -0.0537  1.8677
19116THY    CA368368   2.757   3.770   7.110  0.0626  1.0601 -0.0355
19116THY    HA368369   2.707   3.836   7.040  1.7370  0.8235  1.0404
19116THY    CA468370   2.852   3.808   7.203 -0.2104  0.3968  0.5860
19116THY    HA468371   2.885   3.911   7.193  1.2421 -1.6699 -0.0208
19116THY    CA568372   2.901   3.725   7.309 -0.6387  0.3397  0.1819
19116THY    CM168373   3.007   3.766   7.411  0.3455 -0.4846 -0.2876
19116THY    HM168374   2.975   3.869   7.425  1.2116 -0.9347  0.0552
19116THY    HM268375   3.110   3.757   7.373  0.0383 -1.8482  1.5264
19116THY    HM368376   2.987   3.703   7.499 -0.6250 -0.4172  0.1025
19116THY    CA668377   2.843   3.598   7.321 -0.3716 -0.1094 -0.2714
19116THY    HA668378   2.880   3.528   7.396 -2.3052  0.0163 -1.2101
19117THY      O68379   4.368   3.880   2.662 -0.7795 -0.2680 -0.4572
19117THY     HO68380   4.455   3.838   2.658  0.6634  0.5408  2.2580
19117THY    CA168381   4.386   3.985   2.747  0.2482 -0.6664  1.5618
19117THY    CA268382   4.280   4.077   2.771  0.1100 -0.1064 -0.6673
19117THY    CP168383   4.149   4.046   2.705 -0.2527 -0.1269  0.3331
19117THY    HP168384   4.144   3.943   2.669  2.6975  0.7263 -0.1883
19117THY    CP268385   4.138   4.137   2.584  0.3123 -0.0072  0.3461
19117THY    HP268386   4.040   4.122   2.537 -0.4795  2.0607 -1.5879
19117THY    HP368387   4.215   4.104   2.514 -0.9335 -1.0898 -0.3547
19117THY    HP468388   4.157   4.243   2.604  0.5865 -1.1333  0.5206
19117THY    CP368389   4.036   4.069   2.806 -0.1230 -0.3435 -0.2623
19117THY    HP568390   4.042   4.175   2.833  0.7014 -1.0508 -0.1159
19117THY    HP668391   4.050   4.011   2.897  0.9386  1.2207  2.2672
19117THY    HP768392   3.945   4.052   2.748 -0.0572 -0.8539  0.9589
19117THY    CA368393   4.315   4.195   2.846  0.1683  0.1708  0.3659
19117THY    HA368394   4.242   4.274   2.860  1.1031 -2.4643  1.8066
19117THY    CA468395   4.449   4.212   2.890  0.1549 -0.0560  0.1465
19117THY    HA468396   4.479   4.298   2.948 -1.3031  0.3439  0.4140
19117THY    CA568397   4.545   4.111   2.870 -0.2907 -0.3918 -0.0289
19117THY    CM168398   4.678   4.126   2.930 -0.6657 -0.1362  0.4251
19117THY    HM168399   4.752   4.046   2.913 -1.1667 -1.9384  0.2939
19117THY    HM268400   4.683   4.165   3.032 -0.5214 -0.3836  1.0610
19117THY    HM368401   4.724   4.198   2.862 -2.6062 -1.6932  0.2754
19117THY    CA668402   4.509   3.994   2.808 -0.2802 -1.0073  0.2934
19117THY    HA668403   4.588   3.921   2.793  0.4710 -1.9220  1.2561
19118THY      O68404   5.468   8.965   6.999 -0.0696 -0.0146 -0.0741
19118THY     HO68405   5.532   9.024   7.040  2.5268 -1.0517 -1.9818
19118THY    CA168406   5.421   8.878   7.089 -0.7619  0.1661  0.5927
19118THY    CA268407   5.401   8.746   7.048  0.4685 -0.3043  0.2524
19118THY    CP168408   5.418   8.699   6.907  0.2727  1.0896  0.1649
19118THY    HP168409   5.423   8.788   6.843 -0.2306 -0.8690 -1.1376
19118THY    CP268410   5.289   8.616   6.864 -0.6550 -0.4656 -0.3692
19118THY    HP268411   5.296   8.519   6.915  1.1051  2.8812  1.3269
19118THY    HP368412   5.285   8.603   6.755  2.3509 -0.7048 -0.0799
19118THY    HP468413   5.199   8.659   6.907 -1.0436 -0.1513 -1.4495
19118THY    CP368414   5.538   8.610   6.882 -0.2141  0.1282  0.6752
19118THY    HP568415   5.534   8.529   6.957  0.1710  0.0169  0.5529
19118THY    HP668416   5.632   8.665   6.889  0.8070  0.7067 -1.0582
19118THY    HP768417   5.541   8.569   6.781  1.0591 -0.2267  1.5809
19118THY    CA368418   5.344   8.662   7.154 -0.1262  0.2208 -0.0050
19118THY    HA368419   5.322   8.557   7.136 -0.0287  2.6040 -0.4858
19118THY    CA468420   5.313   8.711   7.274 -0.7319 -0.2568 -0.8169
19118THY    HA468421   5.247   8.648   7.333 -0.2046 -0.3615 -1.4731
19118THY    CA568422   5.341   8.843   7.310 -0.7925 -0.1690 -0.0385
19118THY    CM168423   5.294   8.886   7.449 -0.1210  0.1717 -0.0444
19118THY    HM168424   5.313   8.809   7.524  2.2724 -0.5365 -0.2213
19118THY    HM268425   5.193   8.918   7.422  0.3182 -1.2076  0.2195
19118THY    HM368426   5.348   8.973   7.490 -2.1374 -1.2621  2.0065
19118THY    CA668427   5.406   8.924   7.219 -0.1343 -0.1032  0.1079
19118THY    HA668428   5.437   9.024   7.249  2.6952  3.5007 -1.6058
19119THY      O68429   7.471   6.127   6.391 -0.0320 -0.7948 -0.0397
19119THY     HO68430   7.506   6.190   6.325 -0.6983 -0.6948  0.4517
19119THY    CA168431   7.471   6.009   6.324  0.1037 -0.4923 -0.6609
19119THY    CA268432   7.359   5.921   6.331 -0.4631  0.3893 -0.1332
19119THY    CP168433   7.231   5.957   6.409  0.5681 -0.1483  0.8768
19119THY    HP168434   7.232   6.061   6.444  2.2674  0.7112  0.6111
19119THY    CP268435   7.239   5.881   6.541 -0.6330 -0.8506  0.1892
19119THY    HP268436   7.150   5.906   6.601  0.9689 -0.1982  5.4289
19119THY    HP368437   7.332   5.898   6.597  0.4972 -2.4429 -0.4895
19119THY    HP468438   7.255   5.773   6.529  2.0246  1.1674  0.2379
19119THY    CP368439   7.110   5.915   6.334  0.4750 -0.2217  0.1158
19119THY    HP568440   7.128   5.921   6.226 -1.8088 -0.6939 -0.5012
19119THY    HP668441   7.025   5.980   6.357 -0.2770 -0.0608 -0.8990
19119THY    HP768442   7.076   5.815   6.361  0.2278  2.1348  0.7744
19119THY    CA368443   7.359   5.800   6.250  0.7244 -0.8976 -0.2020
19119THY    HA368444   7.283   5.723   6.249  2.7038 -1.5511 -2.2704
19119THY    CA468445   7.468   5.771   6.176 -0.0485  0.6893 -0.0715
19119THY    HA468446   7.470   5.684   6.111 -1.0399  0.8272 -0.2110
19119THY    CA568447   7.575   5.851   6.180 -0.1472  0.0571 -0.2426
19119THY    CM168448   7.696   5.811   6.111  0.1918  0.6157 -0.2019
19119THY    HM168449   7.688   5.716   6.057 -2.3532 -0.9134  0.7905
19119THY    HM268450   7.792   5.815   6.165  0.7372 -0.3599  0.5647
19119THY    HM368451   7.706   5.888   6.033 -0.8157  1.1204  0.4612
19119THY    CA668452   7.584   5.967   6.260 -0.0200  0.2237 -0.2335
19119THY    HA668453   7.672   6.030   6.255 -0.3602 -0.4425  0.1937
19120THY      O68454   1.967   2.663   6.521 -0.4217 -0.6166  0.4673
19120THY     HO68455   1.998   2.715   6.597  1.3423 -1.9611  1.4887
19120THY    CA168456   1.934   2.757   6.427 -0.6152 -0.0696  0.1384
19120THY    CA268457   1.912   2.718   6.298  0.4574  0.1448 -0.3489
19120THY    CP168458   1.944   2.574   6.252  0.2776 -0.6379  0.2132
19120THY    HP168459   1.992   2.518   6.333  1.2198 -1.3494 -0.0291
19120THY    CP268460   2.046   2.562   6.144 -0.8785  0.5647  0.5018
19120THY    HP268461   2.141   2.608   6.174 -0.7928 -1.8083  2.0762
19120THY    HP368462   2.015   2.625   6.059 -0.8045 -1.5944 -2.1809
19120THY    HP468463   2.065   2.461   6.107  0.7764 -1.8693  1.5889
19120THY    CP368464   1.813   2.521   6.216 -0.1307 -0.0463 -0.2413
19120THY    HP568465   1.814   2.413   6.195  1.4904 -0.0769 -0.2432
19120THY    HP668466   1.773   2.565   6.123 -0.9671  0.1234 -0.6281
19120THY    HP768467   1.741   2.544   6.295  0.0837 -0.2299  1.1294
19120THY    CA368468   1.864   2.814   6.202  0.2184  0.1817  0.3077
19120THY    HA368469   1.836   2.785   6.101  0.7719  0.4143 -1.1120
19120THY    CA468470   1.855   2.951   6.242 -0.0447 -0.5264  0.1202
19120THY    HA468471   1.819   3.028   6.174 -0.7291 -0.9864 -0.5964
19120THY    CA568472   1.885   2.989   6.374 -0.3061  1.2225 -0.6400
19120THY    CM168473   1.852   3.127   6.423  0.3989  0.3098 -0.7387
19120THY    HM168474   1.869   3.208   6.352 -1.8438  0.0916 -0.3799
19120THY    HM268475   1.907   3.137   6.517  0.8310  0.3455 -2.9443
19120THY    HM368476   1.743   3.136   6.437  0.3449 -1.1635  1.5904
19120THY    CA668477   1.918   2.889   6.466 -0.4901  0.0408  0.3519
19120THY    HA668478   1.934   2.909   6.572  0.4856  0.3103 -1.5829
19121THY      O68479   5.064   5.174   3.126  0.4763  0.1575 -0.1032
19121THY     HO68480   5.048   5.115   3.050 -1.6381  0.5930 -0.1923
19121THY    CA168481   4.952   5.169   3.205  0.0503  0.5558 -0.0720
19121THY    CA268482   4.955   5.207   3.340 -0.0405 -0.2638  0.3475
19121THY    CP168483   5.075   5.284   3.393 -0.5939  0.5023 -0.4097
19121THY    HP168484   5.155   5.285   3.318 -1.3742 -0.3591  0.0707
19121THY    CP268485   5.138   5.232   3.528 -0.2919 -0.0480 -0.3057
19121THY    HP268486   5.179   5.131   3.513 -0.2831  0.8531 -0.4420
19121THY    HP368487   5.062   5.236   3.607 -1.6121 -1.2751 -0.2445
19121THY    HP468488   5.218   5.302   3.555 -0.1693 -0.9825 -0.0732
19121THY    CP368489   5.033   5.429   3.399 -0.6144 -0.2979  0.0418
19121THY    HP568490   4.938   5.446   3.450  0.0662  0.4632  1.8420
19121THY    HP668491   5.023   5.477   3.301 -0.3800 -1.9074 -2.9503
19121THY    HP768492   5.106   5.483   3.461 -1.2633  1.8594 -1.4398
19121THY    CA368493   4.840   5.177   3.426 -0.0762 -0.5174 -0.6870
19121THY    HA368494   4.845   5.201   3.532 -0.7708 -0.8299  0.9330
19121THY    CA468495   4.736   5.108   3.366 -0.3248  0.4918 -0.3035
19121THY    HA468496   4.644   5.092   3.421 -0.7768 -0.6185 -1.7887
19121THY    CA568497   4.731   5.072   3.230  0.4247 -0.2293 -0.0710
19121THY    CM168498   4.616   5.002   3.165  0.1767  0.7717 -0.2822
19121THY    HM168499   4.522   5.008   3.221 -0.3702 -0.1056 -0.4410
19121THY    HM268500   4.637   4.894   3.157  0.3942  0.1509 -0.2000
19121THY    HM368501   4.597   5.033   3.062 -0.5926  0.4344 -1.7770
19121THY    CA668502   4.838   5.111   3.152  0.1200  0.0447  0.3156
19121THY    HA668503   4.833   5.104   3.043  0.4706 -0.0502  1.3937
19122THY      O68504   0.609   1.414   2.314 -0.0433 -0.0503  0.0833
19122THY     HO68505   0.625   1.462   2.398  0.9206  0.2050 -0.6562
19122THY    CA168506   0.595   1.516   2.226 -0.2190 -0.1343  0.6111
19122THY    CA268507   0.662   1.517   2.094  0.1665 -0.0591  1.0823
19122THY    CP168508   0.737   1.395   2.043  0.5200 -0.3195 -0.0798
19122THY    HP168509   0.695   1.311   2.099 -3.2942  0.1460  1.9047
19122THY    CP268510   0.886   1.407   2.070 -0.3507 -0.6179 -0.1919
19122THY    HP268511   0.924   1.485   2.003 -1.7282  0.9539  1.9338
19122THY    HP368512   0.942   1.318   2.039  0.8533 -0.2853  0.4226
19122THY    HP468513   0.906   1.423   2.177 -1.0071 -0.9089  3.3801
19122THY    CP368514   0.716   1.364   1.894  0.4525 -0.4633 -0.5174
19122THY    HP568515   0.736   1.457   1.838 -3.1245 -1.3133 -0.1246
19122THY    HP668516   0.615   1.331   1.867  0.1140  1.0244 -0.7477
19122THY    HP768517   0.789   1.290   1.859 -0.7137 -0.5515 -1.6639
19122THY    CA368518   0.652   1.635   2.014 -0.3944 -0.2013 -0.2152
19122THY    HA368519   0.708   1.637   1.921  0.1074  0.0045 -2.6410
19122THY    CA468520   0.569   1.744   2.059 -0.3499  0.0260  0.1896
19122THY    HA468521   0.551   1.830   1.996 -0.9290  0.0785  0.1083
19122THY    CA568522   0.503   1.735   2.182 -0.3702 -0.4262 -0.1488
19122THY    CM168523   0.406   1.842   2.223 -0.3087  0.2895  0.1983
19122THY    HM168524   0.463   1.934   2.240  3.2350 -0.2134 -1.7161
19122THY    HM268525   0.338   1.831   2.308 -0.1400  0.8455  2.7937
19122THY    HM368526   0.335   1.861   2.141  0.1170  0.1320  1.1337
19122THY    CA668527   0.533   1.627   2.267  1.0263 -0.3217  0.4844
19122THY    HA668528   0.482   1.624   2.364  0.1084 -0.8027 -2.3910
19123THY      O68529   7.318   7.985   1.928  0.4244 -0.8945 -0.5154
19123THY     HO68530   7.401   7.943   1.958  1.3215 -0.3133  1.5555
19123THY    CA168531   7.360   8.109   1.915  0.8503 -0.4447 -0.4076
19123THY    CA268532   7.262   8.208   1.907  0.3153  0.4095  1.0291
19123THY    CP168533   7.110   8.178   1.925 -0.1517  0.2160 -0.4027
19123THY    HP168534   7.077   8.080   1.888  0.5689 -2.2177  0.2245
19123THY    CP268535   7.019   8.265   1.839  0.0029  0.0692  0.5469
19123THY    HP268536   7.054   8.289   1.738  1.0503  0.8908  2.8110
19123THY    HP368537   6.998   8.365   1.880  0.0445  1.4264  0.0210
19123THY    HP468538   6.921   8.216   1.845 -0.8513 -1.1636  2.0143
19123THY    CP368539   7.076   8.182   2.076  0.0891  0.3506  0.0392
19123THY    HP568540   7.112   8.088   2.120  1.5238  0.1636  0.4708
19123THY    HP668541   6.968   8.193   2.092  0.0671 -0.8743  2.1317
19123THY    HP768542   7.137   8.257   2.127  1.7386 -0.9238 -0.3805
19123THY    CA368543   7.304   8.329   1.853 -0.2706  0.5667 -0.3499
19123THY    HA368544   7.231   8.406   1.828  2.3162  2.3395  2.9583
19123THY    CA468545   7.439   8.364   1.845 -0.1810  0.6312  0.0907
19123THY    HA468546   7.467   8.465   1.815 -1.2999  0.3365  0.3287
19123THY    CA568547   7.536   8.267   1.870  0.0276  0.3197  0.7757
19123THY    CM168548   7.681   8.292   1.853  1.1915 -0.0928 -0.2668
19123THY    HM168549   7.742   8.201   1.862  0.0422  0.4472 -1.0012
19123THY    HM268550   7.714   8.374   1.918 -1.3599  3.9107 -2.0988
19123THY    HM368551   7.689   8.326   1.749 -1.6290  0.0271  1.1123
19123THY    CA668552   7.496   8.132   1.895  0.2279  0.5539 -0.0854
19123THY    HA668553   7.559   8.044   1.892 -2.9457 -3.0240 -2.5490
19124THY      O68554   3.908   4.630   6.288  0.0618 -0.0603  0.7787
19124THY     HO68555   3.906   4.695   6.215  1.5034 -1.0751 -0.2359
19124THY    CA168556   3.947   4.512   6.216 -0.2745 -1.0441  0.4922
19124THY    CA268557   3.867   4.396   6.203 -0.0600 -0.2314 -0.2158
19124THY    CP168558   3.729   4.397   6.271 -0.5282 -0.6233 -0.8164
19124THY    HP168559   3.695   4.500   6.283  1.5239 -0.0894 -0.1508
19124THY    CP268560   3.737   4.342   6.417 -0.4539  0.1834 -0.3820
19124THY    HP268561   3.633   4.334   6.452 -0.8803 -1.1303 -0.9651
19124THY    HP368562   3.778   4.411   6.491  0.2863 -0.8077  0.2667
19124THY    HP468563   3.786   4.244   6.421 -1.1836  2.4021 -0.7043
19124THY    CP368564   3.620   4.329   6.186  0.6255  0.3782  0.0158
19124THY    HP568565   3.620   4.220   6.199 -1.1406  1.0060  0.0528
19124THY    HP668566   3.637   4.355   6.081  2.3496  0.3679 -0.9578
19124THY    HP768567   3.532   4.367   6.240  1.4008  0.7489  1.3332
19124THY    CA368568   3.922   4.282   6.139  0.2617  0.6381 -0.0825
19124THY    HA368569   3.872   4.186   6.139 -0.8331 -1.4243  0.4502
19124THY    CA468570   4.050   4.284   6.085  0.1196  0.4683 -0.1632
19124THY    HA468571   4.095   4.197   6.037 -2.9617 -0.8009 -1.2233
19124THY    CA568572   4.125   4.399   6.092 -0.1261 -0.7337  0.3028
19124THY    CM168573   4.273   4.394   6.046 -0.4755  0.7585  0.1952
19124THY    HM168574   4.344   4.349   6.115  1.4398 -1.3013 -0.1338
19124THY    HM268575   4.313   4.493   6.020 -0.7319  0.6402  0.2711
19124THY    HM368576   4.292   4.333   5.957 -1.5851  0.1369  0.7193
19124THY    CA668577   4.072   4.509   6.155 -0.5244  0.2272 -0.3143
19124THY    HA668578   4.139   4.594   6.163  0.6662 -2.4435 -0.8899
19125THY      O68579   8.625   5.494   7.055 -0.1379 -0.2252 -0.0758
19125THY     HO68580   8.625   5.567   6.990 -0.5767 -1.5062 -1.1630
19125THY    CA168581   8.538   5.412   7.004 -0.2065  0.4247  0.1880
19125THY    CA268582   8.566   5.274   7.008 -0.1620  0.0113 -0.4118
19125THY    CP168583   8.652   5.218   7.120  1.1309 -0.0246  0.3888
19125THY    HP168584   8.669   5.300   7.191  0.2542  0.6226  0.0282
19125THY    CP268585   8.796   5.183   7.064 -0.0062 -0.4123 -0.7283
19125THY    HP268586   8.852   5.123   7.137  0.6828  0.1758  0.5962
19125THY    HP368587   8.852   5.276   7.047 -0.2104  2.3898 -0.0127
19125THY    HP468588   8.795   5.125   6.971 -0.3205  0.0109 -1.4175
19125THY    CP368589   8.596   5.102   7.201 -0.0047 -0.3792 -0.0009
19125THY    HP568590   8.667   5.078   7.281  1.4167 -1.0174  1.8621
19125THY    HP668591   8.582   5.007   7.148  0.6403 -0.8939  0.1844
19125THY    HP768592   8.494   5.132   7.230  0.3963 -0.0798  1.1108
19125THY    CA368593   8.489   5.188   6.940 -0.3083 -0.0778 -0.8377
19125THY    HA368594   8.507   5.081   6.945  0.9971  0.2673 -0.6234
19125THY    CA468595   8.388   5.243   6.852 -0.4678  0.1451 -0.1642
19125THY    HA468596   8.325   5.172   6.798  0.6383 -1.0301 -0.2929
19125THY    CA568597   8.360   5.379   6.836 -0.2703  0.1914 -0.6872
19125THY    CM168598   8.245   5.437   6.762 -0.6188  0.3046 -0.7448
19125THY    HM168599   8.286   5.532   6.725  0.5489  0.6109 -1.1152
19125THY    HM268600   8.155   5.451   6.824 -0.8489  0.1475 -1.4806
19125THY    HM368601   8.209   5.375   6.679 -1.3108  0.1923 -0.2148
19125THY    CA668602   8.441   5.465   6.918  0.2172 -0.1905  0.5064
19125THY    HA668603   8.420   5.571   6.914 -0.4820  2.3548  0.5526
19126THY      O68604   0.579   8.821   3.789 -0.6660 -0.0162 -0.0387
19126THY     HO68605   0.573   8.858   3.699  0.5286  0.7956  2.3402
19126THY    CA168606   0.511   8.912   3.867 -0.5272  0.1159 -0.3195
19126THY    CA268607   0.509   8.893   4.005 -0.5482  0.1665 -0.0036
19126THY    CP168608   0.570   8.763   4.067 -0.1508  0.6550 -0.1009
19126THY    HP168609   0.648   8.723   4.001 -0.4677  0.0231  0.3045
19126THY    CP268610   0.471   8.643   4.080 -0.1914 -0.1140 -0.1395
19126THY    HP268611   0.442   8.616   4.182 -1.7176  0.2739  2.5927
19126THY    HP368612   0.534   8.560   4.047  0.2571  0.7224 -0.1387
19126THY    HP468613   0.390   8.653   4.006  1.2725 -1.7174  0.3452
19126THY    CP368614   0.635   8.790   4.200  0.2111 -0.7976 -0.0799
19126THY    HP568615   0.720   8.721   4.205  0.0998 -0.9499 -0.2260
19126THY    HP668616   0.569   8.768   4.285 -0.4220 -1.5668 -1.2140
19126THY    HP768617   0.683   8.888   4.210  1.9364  0.5721 -0.9957
19126THY    CA368618   0.447   8.999   4.086  0.3558  0.5418 -0.1554
19126THY    HA368619   0.448   8.999   4.195  1.4531  0.5490  0.6726
19126THY    CA468620   0.380   9.100   4.023  0.8818  0.9300 -0.2477
19126THY    HA468621   0.331   9.176   4.084 -1.1550 -0.8433 -0.0194
19126THY    CA568622   0.388   9.114   3.884  0.5660  0.5667  0.6349
19126THY    CM168623   0.324   9.235   3.825  0.9472 -0.1420 -0.2002
19126THY    HM168624   0.218   9.249   3.848  0.2959 -2.3862 -0.9858
19126THY    HM268625   0.329   9.246   3.717  0.3371 -0.1327  0.1798
19126THY    HM368626   0.377   9.318   3.873 -2.1606  0.8477  1.3770
19126THY    CA668627   0.459   9.025   3.804  0.4498 -0.1278  0.3365
19126THY    HA668628   0.469   9.040   3.697  0.5437 -0.6171 -2.6194
19127THY      O68629   7.076   5.836   1.507  0.3879  0.3291  0.3855
19127THY     HO68630   7.130   5.771   1.459  1.9187  1.4932  0.7471
19127THY    CA168631   7.157   5.901   1.593  0.3144  0.2278  0.6023
19127THY    CA268632   7.115   5.949   1.724  0.3774 -0.0461  0.2681
19127THY    CP168633   6.975   5.919   1.769 -0.1108  0.3348 -0.7944
19127THY    HP168634   6.943   5.857   1.685  2.0962 -1.5300  0.3966
19127THY    CP268635   6.903   6.049   1.773  0.7445  0.1885 -0.9846
19127THY    HP268636   6.936   6.122   1.848 -0.9199 -2.3563  2.7313
19127THY    HP368637   6.796   6.026   1.778  0.7612 -2.2732 -1.8153
19127THY    HP468638   6.909   6.103   1.678 -1.5416  0.5582  0.0582
19127THY    CP368639   6.959   5.842   1.898 -0.7320  0.1795 -0.2373
19127THY    HP568640   6.959   5.904   1.988  0.1534 -0.7723  1.2057
19127THY    HP668641   7.038   5.766   1.904 -2.7384  0.4258 -2.4277
19127THY    HP768642   6.867   5.784   1.889 -1.2155 -0.4511  0.6059
19127THY    CA368643   7.208   6.000   1.808  0.0395  0.1654  0.0634
19127THY    HA368644   7.173   6.035   1.904 -1.7551 -1.5704  3.5367
19127THY    CA468645   7.340   6.014   1.762 -0.3405  0.2589 -0.1742
19127THY    HA468646   7.413   6.053   1.832 -0.8829  2.0688 -2.2047
19127THY    CA568647   7.382   5.974   1.631  0.9709 -0.4627  0.3762
19127THY    CM168648   7.525   5.975   1.595 -1.1624 -0.1442 -0.0903
19127THY    HM168649   7.540   6.047   1.514  0.7499  2.2709  2.4363
19127THY    HM268650   7.545   5.871   1.566 -2.1505  0.9319 -0.6069
19127THY    HM368651   7.582   6.005   1.683 -1.6503 -0.6396  2.5361
19127THY    CA668652   7.285   5.922   1.548  0.0704  1.1842 -0.3962
19127THY    HA668653   7.319   5.892   1.449  1.4435  1.6363 -0.3648
19128THY      O68654   6.108   3.828   4.482 -0.4589 -0.0712 -0.0541
19128THY     HO68655   6.169   3.836   4.558 -1.7364  0.9404  0.4717
19128THY    CA168656   6.084   3.695   4.467  1.0499  0.0694  0.4622
19128THY    CA268657   5.957   3.639   4.500 -0.5197 -0.2337 -0.0322
19128THY    CP168658   5.836   3.727   4.516 -0.5797 -0.1516  0.1258
19128THY    HP168659   5.855   3.818   4.458 -1.9743 -0.2238  0.3940
19128THY    CP268660   5.805   3.757   4.661 -0.6094 -0.4603 -0.0376
19128THY    HP268661   5.808   3.668   4.724  2.5347  0.4312  0.5549
19128THY    HP368662   5.707   3.806   4.662 -1.0392  0.3193 -0.8925
19128THY    HP468663   5.886   3.823   4.694 -0.6645 -0.0685 -0.1674
19128THY    CP368664   5.711   3.670   4.448 -0.2486 -0.2306 -0.0805
19128THY    HP568665   5.641   3.754   4.435 -0.3375 -1.0304 -0.2717
19128THY    HP668666   5.681   3.568   4.475  3.5763  0.1857 -1.2310
19128THY    HP768667   5.732   3.652   4.342  1.2957  0.2029 -0.9423
19128THY    CA368668   5.952   3.496   4.515  0.0145 -0.1387  0.1005
19128THY    HA368669   5.862   3.449   4.554 -0.3427  1.7911  2.2255
19128THY    CA468670   6.068   3.418   4.482  1.0823  0.0340  0.3489
19128THY    HA468671   6.066   3.310   4.497  0.0876  1.5226  0.5369
19128THY    CA568672   6.186   3.483   4.448  0.8316  0.6189 -0.3149
19128THY    CM168673   6.311   3.406   4.407  0.3728  0.0234  0.5873
19128THY    HM168674   6.298   3.385   4.300 -1.1394  0.4025 -0.6252
19128THY    HM268675   6.314   3.308   4.456 -0.1929 -1.7534 -0.3772
19128THY    HM368676   6.408   3.453   4.427  1.0202 -2.3869  0.4040
19128THY    CA668677   6.193   3.618   4.437  0.8875  0.0071 -0.2669
19128THY    HA668678   6.289   3.668   4.434  1.0539  0.5574 -0.5428
19129THY      O68679   0.176   7.117   4.894 -0.1028  0.4181  0.1530
19129THY     HO68680   0.148   7.051   4.960 -0.9915 -2.4608 -2.5780
19129THY    CA168681   0.223   7.228   4.961 -0.3943  0.7050  0.3811
19129THY    CA268682   0.277   7.338   4.894 -0.2953  0.1260  0.0171
19129THY    CP168683   0.310   7.340   4.746  0.7614  0.0362  0.0943
19129THY    HP168684   0.253   7.261   4.697  2.9781 -0.0174 -1.5798
19129THY    CP268685   0.458   7.299   4.734  0.5925 -0.2693 -0.1789
19129THY    HP268686   0.470   7.196   4.768 -2.5896  2.9127  0.2680
19129THY    HP368687   0.518   7.370   4.792  1.7376  0.2328 -1.5135
19129THY    HP468688   0.490   7.315   4.631 -1.6838 -1.1656 -0.9917
19129THY    CP368689   0.287   7.478   4.679  0.1188 -0.2087 -0.1226
19129THY    HP568690   0.384   7.529   4.687 -0.1805 -0.7186  0.5399
19129THY    HP668691   0.197   7.523   4.722  1.3412  2.4580 -0.0244
19129THY    HP768692   0.260   7.470   4.573  0.1493 -0.1585 -1.0204
19129THY    CA368693   0.321   7.446   4.969 -0.2581  0.1158 -0.0220
19129THY    HA368694   0.368   7.534   4.926 -0.7279 -0.5057 -0.0699
19129THY    CA468695   0.301   7.450   5.107 -0.1059  0.7501  0.0896
19129THY    HA468696   0.326   7.529   5.176  0.9037  1.3945 -0.7623
19129THY    CA568697   0.238   7.343   5.164 -0.4549 -0.2883  0.7793
19129THY    CM168698   0.213   7.332   5.311 -0.6536  0.4459  0.4385
19129THY    HM168699   0.126   7.393   5.338 -0.9847 -0.0784  0.2087
19129THY    HM268700   0.294   7.377   5.370  0.3571 -2.5141  2.8753
19129THY    HM368701   0.181   7.232   5.343  1.2462 -0.7279 -0.5971
19129THY    CA668702   0.196   7.232   5.093  0.7860  0.7025  0.2931
19129THY    HA668703   0.159   7.138   5.131 -1.4192 -0.4390  0.6313
19130THY      O68704   5.599   2.733   5.315  0.3852 -0.0929 -0.7588
19130THY     HO68705   5.646   2.694   5.391 -1.3688  1.7768  0.5646
19130THY    CA168706   5.602   2.863   5.342  0.4212  0.1522 -0.4942
19130THY    CA268707   5.598   2.974   5.247 -0.2170 -0.0024  0.3535
19130THY    CP168708   5.598   2.934   5.094  0.1606  0.0758  0.3569
19130THY    HP168709   5.524   2.855   5.083  0.6026  0.9000 -0.1798
19130THY    CP268710   5.738   2.888   5.050 -0.2507 -0.3408 -0.0316
19130THY    HP268711   5.784   2.811   5.113 -0.7339 -2.3120 -2.0251
19130THY    HP368712   5.802   2.976   5.061  1.2815  2.3292 -1.3394
19130THY    HP468713   5.728   2.843   4.951 -1.1152  0.4320 -1.6618
19130THY    CP368714   5.558   3.043   5.002 -0.2793 -0.3895 -0.2238
19130THY    HP568715   5.544   3.002   4.902 -3.1006 -1.3113  2.5761
19130THY    HP668716   5.629   3.124   4.982 -0.1406  0.8609 -0.0051
19130THY    HP768717   5.457   3.077   5.031 -0.1092  1.4773 -1.1959
19130THY    CA368718   5.606   3.107   5.288 -0.1102  0.3098 -0.1092
19130THY    HA368719   5.613   3.191   5.219  2.3043  0.9499  0.3043
19130THY    CA468720   5.623   3.130   5.429  0.7776 -0.4685 -0.1987
19130THY    HA468721   5.629   3.231   5.467 -1.8817 -0.1402 -0.0704
19130THY    CA568722   5.620   3.025   5.522 -0.3620 -0.3652 -0.2412
19130THY    CM168723   5.614   3.065   5.667  0.1367 -0.1028  0.0075
19130THY    HM168724   5.697   3.025   5.726 -0.3533 -0.4162 -1.5463
19130THY    HM268725   5.523   3.018   5.706 -1.0118 -3.4152 -0.7874
19130THY    HM368726   5.593   3.171   5.685 -0.3322  1.9731 -0.3995
19130THY    CA668727   5.613   2.891   5.481  0.6604 -0.7831  0.1993
19130THY    HA668728   5.624   2.815   5.558 -0.3330 -1.5636 -0.7661
19131THY      O68729   4.441   9.189   5.755  0.3167 -0.2935  0.3033
19131THY     HO68730   4.443   9.279   5.793  0.4307  1.2178 -0.3151
19131THY    CA168731   4.491   9.198   5.635 -0.0678  0.2588 -0.2698
19131THY    CA268732   4.463   9.105   5.534  0.2087  0.1513  0.4559
19131THY    CP168733   4.362   8.983   5.556 -0.0365 -0.5167  0.2705
19131THY    HP168734   4.324   8.999   5.657 -1.7679 -0.8992 -1.1295
19131THY    CP268735   4.445   8.845   5.560 -0.2163  0.4107 -0.2457
19131THY    HP268736   4.369   8.766   5.556  0.2181  1.4125 -0.7317
19131THY    HP368737   4.518   8.833   5.641  1.8930 -1.6421 -2.5266
19131THY    HP468738   4.500   8.824   5.467 -1.5661 -1.0362  2.1053
19131THY    CP368739   4.242   8.980   5.460  0.3980  0.6395  0.4915
19131THY    HP568740   4.251   8.901   5.384  0.6646 -1.5646  2.5048
19131THY    HP668741   4.232   9.076   5.408  0.6547 -1.5497 -0.6094
19131THY    HP768742   4.154   8.956   5.520  1.0327  0.8157 -1.5887
19131THY    CA368743   4.523   9.118   5.407  0.0188  0.0274  0.3700
19131THY    HA368744   4.505   9.057   5.320 -1.0110 -1.8972  3.1954
19131THY    CA468745   4.606   9.228   5.388 -0.2900  0.0262  0.1937
19131THY    HA468746   4.649   9.239   5.289  1.3620  0.9469  2.7309
19131THY    CA568747   4.645   9.312   5.486 -0.4443 -0.4180  0.1423
19131THY    CM168748   4.755   9.403   5.465 -0.9078  0.1812  0.1740
19131THY    HM168749   4.844   9.363   5.514 -0.3274 -0.7800  0.2397
19131THY    HM268750   4.725   9.493   5.521 -0.8125 -0.6064  0.7067
19131THY    HM368751   4.784   9.430   5.363 -0.5316  0.8619  2.6122
19131THY    CA668752   4.582   9.300   5.609 -0.5486 -0.4472 -0.1271
19131THY    HA668753   4.622   9.376   5.675  2.6852 -1.6501 -0.6208
19132THY      O68754   5.209   7.213   6.415 -0.2016 -0.1886 -0.1185
19132THY     HO68755   5.138   7.274   6.440  0.4298  0.3641  0.4111
19132THY    CA168756   5.161   7.137   6.319 -0.2147 -0.3796 -0.6499
19132THY    CA268757   5.230   7.032   6.265  0.6727 -0.3340  0.7592
19132THY    CP168758   5.371   7.000   6.306 -0.1950 -0.6567 -0.4418
19132THY    HP168759   5.399   7.063   6.390  1.3102 -0.5276 -1.2227
19132THY    CP268760   5.479   7.037   6.200 -0.4337  0.5953  0.5331
19132THY    HP268761   5.573   7.007   6.247  0.6975 -0.8349  1.7080
19132THY    HP368762   5.476   7.145   6.185  0.2671  1.0943  0.6324
19132THY    HP468763   5.465   6.974   6.112  1.0088  1.6850 -1.4251
19132THY    CP368764   5.379   6.856   6.363  0.4884 -0.7250 -0.1161
19132THY    HP568765   5.426   6.864   6.462 -2.3539  0.7973 -0.7608
19132THY    HP668766   5.425   6.783   6.296 -1.4730 -0.8697 -1.2816
19132THY    HP768767   5.277   6.822   6.383 -0.4566  2.2835  3.7197
19132THY    CA368768   5.168   6.933   6.180 -1.1888  0.1105  0.2708
19132THY    HA368769   5.226   6.849   6.144  1.6160  0.0830  2.0686
19132THY    CA468770   5.037   6.952   6.150  0.3658 -0.0418  0.1114
19132THY    HA468771   4.989   6.879   6.085  0.4572 -0.6072  0.5503
19132THY    CA568772   4.967   7.063   6.203  0.4287 -0.2660  0.4777
19132THY    CM168773   4.818   7.083   6.182 -0.0263 -0.5828  0.2274
19132THY    HM168774   4.812   7.151   6.097  0.7609 -0.8822 -0.0724
19132THY    HM268775   4.765   7.124   6.269 -0.0438  0.1041 -1.1764
19132THY    HM368776   4.764   6.992   6.152 -2.0799 -0.1371  1.2371
19132THY    CA668777   5.028   7.158   6.287 -0.7666  0.5304 -0.0860
19132THY    HA668778   4.968   7.238   6.330  1.6487 -0.7005  2.5692
19133THY      O68779   5.732   7.768   7.005  0.6876 -0.4081  0.3276
19133THY     HO68780   5.816   7.799   7.045 -0.2663  1.4671  0.6293
19133THY    CA168781   5.695   7.662   7.084 -0.0071  0.5189 -0.7128
19133THY    CA268782   5.558   7.619   7.115  0.3251 -0.1769 -0.1986
19133THY    CP168783   5.438   7.685   7.039  0.1386 -0.1238 -0.4617
19133THY    HP168784   5.458   7.793   7.034  1.6336  0.8983 -0.6583
19133THY    CP268785   5.306   7.674   7.118 -0.3700  0.0031 -0.0216
19133THY    HP268786   5.306   7.732   7.211  2.1294  1.3461 -1.9520
19133THY    HP368787   5.274   7.574   7.152 -1.1935  0.9459  0.5398
19133THY    HP468788   5.218   7.704   7.060 -1.6168  1.8467  0.0778
19133THY    CP368789   5.426   7.617   6.896 -0.7677 -0.5879  0.1238
19133THY    HP568790   5.321   7.592   6.876 -0.5425 -0.0353 -1.3909
19133THY    HP668791   5.478   7.522   6.878 -0.6273 -0.7648  0.2356
19133THY    HP768792   5.462   7.686   6.819 -0.8236 -1.0517 -0.3584
19133THY    CA368793   5.535   7.512   7.201  0.0199 -0.3638 -0.4486
19133THY    HA368794   5.438   7.478   7.238 -0.4434  0.3923  1.5336
19133THY    CA468795   5.642   7.450   7.259 -0.4541 -0.6956 -0.0324
19133THY    HA468796   5.635   7.381   7.342 -0.3893  1.1164  2.0534
19133THY    CA568797   5.770   7.490   7.234 -0.3785  0.2954  0.5057
19133THY    CM168798   5.893   7.419   7.292  0.1117 -0.3093  0.1390
19133THY    HM168799   5.957   7.379   7.212 -0.3385 -0.8042  0.3871
19133THY    HM268800   5.858   7.330   7.346  1.4651  1.3993  0.6003
19133THY    HM368801   5.940   7.474   7.374  0.7933  1.5541 -2.9916
19133THY    CA668802   5.800   7.603   7.152  0.6287 -0.0189  0.5354
19133THY    HA668803   5.904   7.631   7.140  0.7849 -0.1926 -0.0934
19134THY      O68804   3.101   7.074   6.182 -0.7353 -0.5554  0.0705
19134THY     HO68805   3.110   6.996   6.238 -1.7734 -0.9885 -0.3766
19134THY    CA168806   3.221   7.087   6.110 -0.0682  0.5870  0.7874
19134THY    CA268807   3.244   7.180   6.007 -0.0944 -0.3182  0.2530
19134THY    CP168808   3.136   7.281   5.976 -0.6324  0.3133  0.5535
19134THY    HP168809   3.035   7.241   5.989 -1.0533  0.3383  1.5958
19134THY    CP268810   3.137   7.319   5.825 -0.2709  0.3698 -0.4558
19134THY    HP268811   3.051   7.383   5.801 -0.4069 -0.2514 -0.8706
19134THY    HP368812   3.139   7.235   5.754  0.3465  0.1647 -0.2712
19134THY    HP468813   3.221   7.386   5.806 -1.0445  1.1397  0.7697
19134THY    CP368814   3.155   7.396   6.066  0.5110  0.6654  0.4728
19134THY    HP568815   3.261   7.422   6.077  0.4848 -1.2367  1.5684
19134THY    HP668816   3.122   7.351   6.160  0.3538 -0.0309 -0.9401
19134THY    HP768817   3.080   7.469   6.032 -2.6674  1.0346 -2.3762
19134THY    CA368818   3.367   7.181   5.940  0.2446  0.0527 -0.9564
19134THY    HA368819   3.387   7.256   5.864 -1.5215 -1.8126 -2.2664
19134THY    CA468820   3.469   7.100   5.986 -0.0521 -0.1225  0.3618
19134THY    HA468821   3.570   7.105   5.947 -0.0487 -0.0861  0.5714
19134THY    CA568822   3.449   7.002   6.085 -0.0878 -0.0832 -0.5254
19134THY    CM168823   3.568   6.907   6.110 -0.6049 -0.6233  0.0308
19134THY    HM168824   3.532   6.823   6.170  1.0146 -1.5733 -1.4098
19134THY    HM268825   3.654   6.962   6.150 -0.4899 -1.0665  0.1751
19134THY    HM368826   3.602   6.867   6.014 -0.0372 -0.3204 -0.2189
19134THY    CA668827   3.323   6.996   6.146 -0.4708 -0.5707 -0.4835
19134THY    HA668828   3.310   6.923   6.226 -1.5261 -0.4325 -0.1612
19135THY      O68829   3.059   2.533   6.812 -0.8196 -0.8733  0.4038
19135THY     HO68830   3.089   2.487   6.732  0.5702 -0.7703  1.0653
19135THY    CA168831   2.934   2.581   6.795  0.4317 -0.5389 -0.4470
19135THY    CA268832   2.889   2.700   6.856 -0.1715  0.2668  0.9477
19135THY    CP168833   2.977   2.772   6.952  0.0691 -0.3742  0.4809
19135THY    HP168834   3.075   2.726   6.971  0.6248 -0.4000  1.6151
19135THY    CP268835   2.926   2.782   7.094  0.0563 -0.4557 -0.4371
19135THY    HP268836   2.994   2.826   7.167 -2.7864  0.3180  3.2266
19135THY    HP368837   2.888   2.685   7.129 -2.1313  1.3583  0.9736
19135THY    HP468838   2.833   2.841   7.100 -0.0787 -1.5083 -0.5177
19135THY    CP368839   2.995   2.915   6.901 -0.9248  0.1926 -0.7791
19135THY    HP568840   3.055   2.979   6.966 -0.4615 -2.8715  2.1990
19135THY    HP668841   2.900   2.962   6.874 -1.3612  1.9550 -0.5988
19135THY    HP768842   3.056   2.910   6.809 -0.3674  0.5518 -0.6690
19135THY    CA368843   2.751   2.740   6.824  0.3570  0.4638 -0.3726
19135THY    HA368844   2.714   2.817   6.891  0.3454  1.6654 -1.4013
19135THY    CA468845   2.671   2.665   6.740  0.0349 -0.6094 -0.7085
19135THY    HA468846   2.571   2.700   6.716  0.7005 -2.1488  0.2233
19135THY    CA568847   2.719   2.548   6.689  0.6408  0.5084  0.2973
19135THY    CM168848   2.631   2.462   6.599  0.4083  0.3641  0.5147
19135THY    HM168849   2.522   2.458   6.609  0.2004 -1.7702 -0.9297
19135THY    HM268850   2.662   2.357   6.608 -0.0981  1.8348  0.4668
19135THY    HM368851   2.645   2.493   6.495 -0.6270 -0.2816 -1.0622
19135THY    CA668852   2.856   2.511   6.706 -0.7025 -0.1107  0.9648
19135THY    HA668853   2.898   2.421   6.662  1.1467  0.3432  1.5760
19136THY      O68854   7.046   3.192   7.890  0.2516  0.2037  0.1288
19136THY     HO68855   6.973   3.139   7.925  0.9457  1.9841  0.2748
19136THY    CA168856   7.143   3.101   7.866 -0.2691 -0.4963 -0.2253
19136THY    CA268857   7.269   3.142   7.822 -0.3991  0.6460  0.6050
19136THY    CP168858   7.294   3.294   7.809 -0.4026 -0.0247 -0.3326
19136THY    HP168859   7.262   3.342   7.902 -0.3510  0.0033 -0.3514
19136THY    CP268860   7.226   3.352   7.689 -0.4679  0.9658  0.2694
19136THY    HP268861   7.282   3.323   7.599 -0.8554  0.7817  0.0898
19136THY    HP368862   7.236   3.461   7.702 -1.0071  0.0051  0.4476
19136THY    HP468863   7.121   3.326   7.674 -0.2356  0.3815 -0.3423
19136THY    CP368864   7.440   3.344   7.811  0.2574 -0.6263  0.2603
19136THY    HP568865   7.498   3.288   7.737  1.5081  0.1546  0.4757
19136THY    HP668866   7.485   3.320   7.909  2.1113 -1.7881 -1.2694
19136THY    HP768867   7.457   3.449   7.784  1.9871  2.6213  0.9455
19136THY    CA368868   7.355   3.046   7.767 -0.1488  0.2986 -0.0309
19136THY    HA368869   7.451   3.075   7.727  0.6367  0.7656 -1.8477
19136THY    CA468870   7.317   2.913   7.776 -0.1287  0.0173  0.4005
19136THY    HA468871   7.387   2.837   7.742 -0.9365  2.3586 -1.5480
19136THY    CA568872   7.193   2.877   7.833  0.2494 -0.0175  0.5732
19136THY    CM168873   7.143   2.733   7.855 -0.3655 -0.4755 -0.3008
19136THY    HM168874   7.198   2.657   7.799  0.7283  2.3838 -1.7639
19136THY    HM268875   7.036   2.729   7.832 -0.2862 -0.6762 -1.5055
19136THY    HM368876   7.159   2.709   7.961  0.5820 -0.1459  1.5730
19136THY    CA668877   7.102   2.971   7.875 -1.2318 -0.4636 -0.5212
19136THY    HA668878   7.003   2.954   7.916 -1.6423 -0.0908  2.3462
19137THY      O68879   0.695   7.964   6.688 -0.0412  0.8598 -0.5806
19137THY     HO68880   0.643   8.033   6.644  0.5820  0.8582 -0.0967
19137THY    CA168881   0.746   8.001   6.803 -0.6005 -0.0558 -0.4037
19137THY    CA268882   0.833   7.921   6.879 -0.3020 -0.6815  0.0188
19137THY    CP168883   0.885   7.786   6.811  0.7365  0.0950 -0.6403
19137THY    HP168884   0.814   7.747   6.737 -0.4441  1.2099 -0.7106
19137THY    CP268885   0.902   7.670   6.910  0.2461  0.0872  0.0333
19137THY    HP268886   0.975   7.705   6.984  2.1568 -2.2811  1.3895
19137THY    HP368887   0.943   7.582   6.860  0.3515  0.2724 -0.0221
19137THY    HP468888   0.800   7.645   6.942  0.4981  0.9281  0.0638
19137THY    CP368889   1.026   7.800   6.743 -0.2556  0.0487 -0.0078
19137THY    HP568890   1.046   7.709   6.685  0.4993  2.1495 -1.2442
19137THY    HP668891   1.116   7.811   6.805  0.4379 -0.9215 -0.0362
19137THY    HP768892   1.034   7.881   6.669  1.1819 -0.3114 -0.4383
19137THY    CA368893   0.874   7.964   7.009 -0.0163 -0.3009 -0.3766
19137THY    HA368894   0.944   7.903   7.065 -2.5693 -0.5677 -3.8532
19137THY    CA468895   0.832   8.092   7.049 -0.0840 -0.0596  0.1971
19137THY    HA468896   0.859   8.138   7.144 -0.1776 -0.2272  0.5984
19137THY    CA568897   0.743   8.171   6.972 -0.1048  0.3027  0.0865
19137THY    CM168898   0.706   8.310   7.014 -0.5652 -0.1264 -0.7378
19137THY    HM168899   0.783   8.381   6.981 -0.1103  1.1619 -0.6062
19137THY    HM268900   0.691   8.317   7.122 -1.8102 -0.3881  1.6618
19137THY    HM368901   0.614   8.343   6.965  0.7551 -1.4911  1.1784
19137THY    CA668902   0.706   8.126   6.850  0.0589  0.3652 -0.3350
19137THY    HA668903   0.649   8.191   6.785  0.6391 -0.4846 -0.6498
19138THY      O68904   2.547   4.068   5.121  0.2680 -0.1801 -0.2124
19138THY     HO68905   2.600   4.145   5.146  2.7558 -0.4518 -1.6878
19138THY    CA168906   2.514   4.007   5.233 -0.3719  0.0556  0.6093
19138THY    CA268907   2.386   3.974   5.260  0.8230 -0.0232  0.5141
19138THY    CP168908   2.282   3.983   5.151  0.3736  0.3351  0.3501
19138THY    HP168909   2.312   4.042   5.063 -1.3158  1.0747  2.4626
19138THY    CP268910   2.156   4.055   5.204 -0.4971  0.3695  0.0105
19138THY    HP268911   2.094   4.070   5.115  0.1022 -0.3719 -1.6606
19138THY    HP368912   2.180   4.152   5.249 -0.7063 -0.0750  0.2736
19138THY    HP468913   2.091   3.988   5.263 -2.6243  0.4637  2.0353
19138THY    CP368914   2.252   3.847   5.110  0.8564  0.0590  0.2164
19138THY    HP568915   2.343   3.809   5.062 -0.3132 -0.8651 -1.5356
19138THY    HP668916   2.178   3.844   5.029  0.7163  0.1502  0.9468
19138THY    HP768917   2.218   3.777   5.188 -0.6423 -1.8400 -1.2835
19138THY    CA368918   2.353   3.922   5.388  0.2087 -0.7214 -0.3846
19138THY    HA368919   2.248   3.895   5.394 -0.4775 -1.2187  1.9083
19138THY    CA468920   2.447   3.916   5.490  0.5837  0.0520 -0.3840
19138THY    HA468921   2.413   3.887   5.589  0.3411  0.3306  0.7650
19138THY    CA568922   2.578   3.948   5.456 -0.0229  0.4998 -0.6495
19138THY    CM168923   2.687   3.949   5.560 -0.3463  0.1440 -0.0009
19138THY    HM168924   2.732   4.049   5.552 -1.1291 -3.5350  0.1882
19138THY    HM268925   2.763   3.873   5.539  0.1300 -0.5212  0.6425
19138THY    HM368926   2.648   3.922   5.659  0.5269  0.8084  1.0734
19138THY    CA668927   2.613   3.978   5.323 -0.1976 -0.6215 -0.6135
19138THY    HA668928   2.714   4.003   5.290 -0.8307 -2.0709  0.1978
   9.60500   9.60500   9.60500
